epsx,epsy,epsz,fin_en,form_enp,gv,icsd,kp_leng,kv,mbj_gap,mepsx,mepsy,mepsz,mpid,op_gap,jid,formula
3.8289999999999997,4.4551,4.3491,-19.434124,-1.149,16.573,37325,50,35.556,1.7825,3.3349,3.8197,3.7378,mp-7911,1.3801,JVASP-10189,KCuO
16.1457,16.105999999999998,16.9238,-40.510432,-0.528,18.313,26472,55,35.356,0.9179999999999999,11.9428,11.9593,12.4337,mp-7943,0.1456,JVASP-10192,LiAs
11.0566,10.913,10.9757,-54.808855,-1.835,32.433,26671,55,85.156,1.148,10.185,10.0465,10.0813,mp-7951,0.7023,JVASP-10194,ThSe2
3.2377,3.2002,3.1697,-69.967559,-2.8930000000000002,119.38,27536,50,181.86700000000002,6.5798,2.7032,2.6402,2.6521,mp-7982,4.9145,JVASP-10196,Mg2SiO4
3.6406,3.8303,3.7056,-69.97245799999999,-2.533,66.567,24513,45,137.878,5.4718,3.0206,3.1628,3.0697,mp-8058,3.908,JVASP-10202,YAsO4
2.0180000000000002,2.0180000000000002,2.0777,-45.660199,-2.82,19.333,68980,50,40.022,7.8522,1.5848,1.5848,1.6112,mp-8081,5.0817,JVASP-10203,Na2SnF6
8.5888,8.5888,8.5888,-15.034096,-0.599,39.98,24489,60,58.433,1.6440000000000001,7.0708,7.0711,7.0711,mp-8085,1.1885,JVASP-10204,Mg3P2
4.5289,4.5289,4.5964,-35.427121,-1.8659999999999999,75.973,30339,50,177.889,3.4041,3.2193,3.2196,3.1689999999999996,mp-8098,1.5839,JVASP-10206,InGaO3
12.2778,10.589,11.2117,-17.403499,-0.556,13.652999999999999,32009,65,24.522,0.8001,9.7572,7.996,8.9978,mp-8147,0.6682,JVASP-10209,K2As2Pd
3.4579,3.4599,3.3978,-59.769335999999996,-2.031,43.527,34362,45,87.044,3.6417,3.1272,3.1869,3.2430000000000003,mp-8184,3.2565,JVASP-10213,Li2ZnGeO4
3.5723,3.4017,3.3665,-18.845748,-1.515,15.533,34603,50,51.122,4.1571,2.7186,2.6638,2.6504,mp-8187,2.3419,JVASP-10214,K2ZnO2
7.0626,7.0626,8.4624,-70.22736,-0.715,17.127,35298,60,29.178,2.012,6.231,6.231,7.3568,mp-8203,1.6695,JVASP-10219,Zr(PS3)2
20.1517,11.1971,11.4614,-36.148548,-0.852,77.667,35339,60,202.81099999999998,0.6706,12.0734,9.9088,10.213,mp-8207,0.0023,JVASP-10220,Zn(PtO2)3
19.555,10.4426,10.7101,-40.068643,-1.147,80.867,35340,60,196.47799999999998,0.6859,11.8407,9.4583,9.7392,mp-8208,0.0152,JVASP-10221,Mg(PtO2)3
18.2345,11.8587,12.084000000000001,-35.453002000000005,-0.825,75.907,35407,65,204.078,0.4465,11.7711,10.2993,10.5535,mp-8212,0.0144,JVASP-10222,Cd(PtO2)3
4.6789,4.6789,4.6789,-63.569247,-3.532,147.3,35549,50,207.0,4.0704,4.0754,4.0755,4.0756,mp-8218,2.9977,JVASP-10223,PrAlO3
2.9054,3.0331,3.0227,-87.98432199999999,-2.103,44.9,36040,50,85.6,6.6249,2.3581,2.4177,2.4133,mp-8230,5.0641,JVASP-10224,Zn(PO3)2
3.3846,3.4298,3.0129,-36.125648,-1.619,10.9,38223,45,25.433000000000003,4.7287,2.7246,2.7491,2.4472,mp-8248,3.6621,JVASP-10226,Rb2TeO3
7.4076,6.9073,7.1724,-24.950167,-0.373,11.32,38255,50,20.3,2.4144,5.9036,5.5555,5.7823,mp-8249,1.6501,JVASP-10227,TlPS3
5.1085,5.1374,5.2271,-46.76012,-1.915,45.227,38382,50,63.31100000000001,3.0495,3.8418,3.8633,3.9418,mp-8253,2.3064,JVASP-10228,Na5ReO6
5.0085,4.7626,4.7327,-12.960445,-1.091,15.127,33235,50,35.278,4.4437,3.5885,3.4498,3.4512,mp-8257,2.5185,JVASP-10229,Na2ZnS2
6.5842,7.7154,9.3418,-24.07081,-0.524,10.933,33259,50,20.622,1.2195,5.2687,6.1612,7.4308,mp-8262,0.6956,JVASP-10230,K2P3
5.5899,5.0362,5.2751,-27.781114000000002,-0.731,9.407,33278,55,17.378,2.506,4.3409,4.0808,4.2349,mp-8267,1.6167,JVASP-10232,KPS3
2.5143,2.5143,2.4977,-77.709434,-2.977,27.526999999999997,34350,45,66.344,7.5089,2.0585,2.0581,2.0428,mp-8355,4.7497,JVASP-10240,KAlSiO4
2.8566,2.8216,2.8503,-75.928205,-2.401,29.1,61086,45,53.533,6.5136,2.4166,2.3975,2.4078,mp-8449,4.3803,JVASP-10247,Rb2Li2SiO4
3.0255,3.0216,3.1397,-42.639696,-1.419,29.48,60571,50,66.433,5.7178,2.2769999999999997,2.2792,2.3582,mp-8459,3.1866,JVASP-10249,CdSO4
7.9402,8.4885,8.4412,-32.071526,-0.588,7.492999999999999,59170,50,20.189,2.6236,6.3271,6.6893,6.645,mp-8479,1.9957,JVASP-10250,Tl4SiS4
2.8327,2.8327,2.5889,-41.748296999999994,-1.869,13.14,60762,45,35.967,7.2824,2.3032,2.3028,2.1153,mp-8483,5.1156,JVASP-10251,K2SO3
4.1743,4.1743,4.1743,-28.119456,-0.905,66.66,60763,45,150.4,3.7595,3.0554,3.0554,3.0554,mp-8484,2.3793,JVASP-10252,ZnO2
3.5006,3.9254,5.4356,-28.326719,-1.459,8.827,62120,45,20.477999999999998,2.6842,3.2299,3.6446,5.118,mp-8500,2.4435,JVASP-10253,AsS2NF6
3.8024,4.5337,4.4131,-17.394911999999998,-0.915,12.853,49753,50,29.421999999999997,2.5089,3.0456,3.4879,3.4152,mp-8603,1.5785,JVASP-10258,RbAgO
6.2511,6.4049,6.2975,-84.613049,-2.7,157.5,63202,45,271.967,3.0129,5.371,5.598,5.4387,mp-8615,2.5673,JVASP-10262,NbBO4
16.8775,16.8775,16.8775,-49.373059000000005,-0.513,87.92,41400,55,139.733,1.6191,15.3513,15.352,15.3518,mp-8630,1.4138,JVASP-10264,SbIrS
2.7806,2.728,2.6197,-55.132663,-2.1590000000000003,25.46,67525,50,53.933,6.0139,2.1784,2.1762,2.1216,mp-8872,3.4134,JVASP-10294,RbNa2BO3
4.338,4.338,3.8094,-56.969917,-1.006,53.547,71085,50,78.97800000000001,3.8671,3.758,3.758,3.4085,mp-8926,3.784,JVASP-10301,Li3BN2
9.5834,7.5589,8.149,-13.127401,-0.465,8.587,71223,55,20.011,1.7369,6.8781,5.3388,5.8025,mp-8931,0.7573,JVASP-10303,Rb2SnAs2
4.1086,4.1083,4.2342,-69.736267,-1.148,119.713,72466,50,189.02200000000002,5.6425,3.4210000000000003,3.4188,3.5048,mp-8973,4.5577,JVASP-10472,NaSi2N3
4.8906,5.1899,5.1222,-72.721055,-2.54,72.72,72569,50,176.267,5.1479,3.8049,3.9259,3.9259,mp-8979,3.6756,JVASP-10474,TaInO4
3.5219,3.5219,5.3011,-15.808157999999999,-1.014,7.74,73177,65,17.133,2.1195,2.6818,2.6946,3.9407,mp-9063,0.8713,JVASP-10480,RbSe
7.9068,7.3124,7.3926,-18.037842,-0.667,16.413,73280,60,25.589000000000002,2.529,5.7263,5.2378,5.4012,mp-9069,1.2474,JVASP-10481,K2NaAlAs2
7.8969,6.1062,6.7154,-84.347326,-3.1919999999999997,65.42,75179,45,93.667,2.9854,6.622000000000001,5.2144,5.7665,mp-9173,2.5236,JVASP-10490,TiO2
3.9436,3.9436,3.9436,-71.494709,-2.43,224.22,70016,50,320.2,5.3395,3.3147,3.3147,3.3147,mp-9258,4.527,JVASP-10500,SiO2
5.1989,5.1989,5.709,-127.85354,-3.103,106.26700000000001,150419,50,187.84400000000002,4.1012,4.0239,4.0239,4.3565,mp-9650,2.8932,JVASP-10533,MgTa2O6
5.0079,5.0361,6.3954,-26.673492,-0.526,10.587,300104,55,21.744,2.7336,3.9158,3.9335,4.7236,mp-9664,1.8312,JVASP-10537,K3BP2
5.3171,5.3551,6.9341,-22.110177,-0.43700000000000006,9.607000000000001,300105,55,19.811,2.4618,4.1881,4.2158,5.398,mp-9665,1.5434,JVASP-10538,K3BAs2
8.2892,7.5188,7.5455,-14.531129,-0.556,17.127,300112,60,27.178,2.4798,5.7313,5.1370000000000005,5.2519,mp-9666,1.4396,JVASP-10539,K2NaGaP2
5.3691,5.8187,5.7521,-19.249828,-0.912,9.133,300233,55,17.756,2.6477,4.0145,4.3869,4.3621,mp-9692,1.5894,JVASP-10545,K2GeSe3
5.1583,5.2133,6.7653,-22.002878,-0.434,8.493,402082,60,18.022000000000002,2.4588,4.0852,4.1224,5.0433,mp-9718,1.4751,JVASP-10550,Rb3BAs2
4.9078,4.9528,6.2891,-26.496937,-0.517,9.273,402084,55,19.722,2.7418,3.7979,3.8238,4.5173,mp-9720,1.7117,JVASP-10551,Rb3BP2
3.4195,3.3933,3.5346,-69.87116400000001,-1.827,54.266999999999996,201743,50,94.444,3.7295,2.7336,2.7085,2.8042,mp-9750,2.7472,JVASP-10554,SbPO5
4.748,4.7315,4.5680000000000005,-76.02164499999999,-2.802,101.04,202080,50,227.333,6.0645,3.6578,3.6528,3.6025,mp-9755,4.1708,JVASP-10556,HfGeO4
10.9753,15.2285,13.7861,-28.289742999999998,-0.526,13.413,402886,60,25.189,1.7723,7.6770000000000005,10.2301,9.359,mp-9797,1.1072,JVASP-10570,K(SbSe2)2
10.5707,14.5712,13.0704,-28.447353999999997,-0.539,13.833,402887,55,24.489,1.7863,7.4887,9.9878,9.077,mp-9798,1.1425,JVASP-10571,Rb(SbSe2)2
3.7283,3.8176,3.1076,-46.281815,-1.518,56.033,100679,45,131.989,5.9374,2.8161,2.8631,2.4895,mp-9812,3.8696,JVASP-10573,ZnCO3
13.5863,14.9397,14.0563,-50.079421999999994,-0.573,48.28,409186,60,72.133,0.7082,11.1248,12.0304,11.3134,mp-9852,0.2037,JVASP-10580,TmP5
13.7393,15.196,14.2465,-49.868446,-0.5579999999999999,49.54,409187,60,72.7,0.7523,10.3544,11.2096,10.6531,mp-9853,0.2016,JVASP-10581,LuP5
13.2138,14.3524,13.587,-54.62766800000001,-0.606,45.453,409188,60,70.189,0.664,11.0866,11.6373,11.0694,mp-9854,0.1981,JVASP-10582,YP5
9.4711,6.4796,9.0358,-42.853013,-1.402,34.126999999999995,409293,65,51.411,1.148,7.7735,5.9739,8.2863,mp-9855,0.8065,JVASP-10583,KHfCuS3
6.7589999999999995,6.7573,6.766,-58.282631,-2.187,81.627,40830,55,186.44400000000002,2.4138,4.8868,4.8916,4.8671,mp-9890,1.8552,JVASP-10586,TaAgO3
6.6393,6.6393,6.6393,-39.206664,-1.089,38.94,43025,60,83.2,3.3953,5.5117,5.5133,5.5037,mp-9993,2.5533,JVASP-10594,Al2CdS4
10.5153,5.9538,7.1176,-20.038217000000003,-0.9359999999999999,19.047,76533,60,44.478,1.4905,8.5047,4.5787,5.6296,mp-10223,1.0594,JVASP-10662,Na2PdS2
9.4205,5.7176,6.5259,-22.8216,-0.958,20.546999999999997,87219,60,47.511,1.8335,7.2809,4.3145,5.0262,mp-10246,1.2698,JVASP-10663,Na2PtS2
15.5088,14.4349,13.561,-59.25026,-0.44799999999999995,115.193,88019,60,170.956,1.0394,9.937999999999999,9.399,8.9547,mp-10289,0.0578,JVASP-10666,Ca(BC)2
10.0585,9.2423,9.902000000000001,-29.078851,-1.318,22.5,88716,65,40.367,0.8985,8.6859,8.1988,8.8948,mp-10336,0.638,JVASP-10669,BaYCuTe3
5.8075,6.0423,5.8677,-110.44898,-3.043,79.46,280396,45,141.333,4.2731,4.4872,4.6872,4.4765,mp-10390,3.1766,JVASP-10674,Ta2O5
12.6408,8.4287,8.0733,-15.309035,-0.507,7.233,280591,65,15.856,1.2345,8.0624,5.9199,5.8352,mp-10487,0.0234,JVASP-10683,RbSb
3.0989999999999998,3.0989999999999998,2.889,-76.235136,-2.9819999999999998,44.027,91315,45,81.978,7.507999999999999,2.498,2.4974,2.4408,mp-10509,5.2905,JVASP-10687,BaGaBO3F2
4.9937,6.1723,5.2274,-54.802046,-2.888,60.693000000000005,411502,50,143.156,2.1521,4.0255,5.0680000000000005,4.2812,mp-10560,1.8659,JVASP-10698,Sm3AuO6
6.0195,6.0928,8.7346,-36.963218,-0.8340000000000001,12.173,200263,55,21.189,2.7951,4.6147,4.6992,6.2184,mp-10621,1.9489,JVASP-10700,RbSbS2
4.3178,4.3178,4.3178,-50.916042,-2.792,69.88,77660,50,128.86700000000002,5.0463,3.7264,3.7265,3.7264,mp-10731,4.0514,JVASP-10702,Ba2PrSbO6
8.0868,8.0868,5.8055,-26.89927,-0.693,17.707,281039,55,34.178000000000004,1.952,5.7507,5.8061,4.4367,mp-10776,1.0633,JVASP-10704,K2Sn(AsS3)2
4.3746,4.3746,4.3746,-72.938019,-1.274,44.78,92577,45,78.433,3.5233,3.6532,3.6534,3.6531,mp-10811,2.2016,JVASP-10707,NaSr4(BN2)3
2.8993,3.4497,3.0721,-52.057162,0.13699999999999998,8.547,51532,50,21.378,5.2649,2.4181,2.7851,2.5067,mp-10821,3.7127,JVASP-10708,RbC
7.0867,7.0872,7.4541,-69.275355,-3.112,66.887,95069,55,144.04399999999998,1.0545,5.9431,5.9435,6.1756,mp-10960,0.0214,JVASP-10717,Tb2Ti2S2O5
3.695,3.762,3.7532,-87.891035,-3.205,54.467,95380,50,122.87799999999999,6.4494,3.0529,3.0072,3.0324,mp-10970,4.4391,JVASP-10720,LiErO2
4.8982,5.4717,3.7276,-75.81884699999999,-0.531,21.66,412783,45,37.4,4.3863,4.2507,4.6576,3.5153,mp-11009,3.4328,JVASP-10723,CaC2(SN)2
14.0108,14.0108,6.7627,-23.668581,-1.0070000000000001,18.113,412793,70,30.089000000000002,0.9129999999999999,10.023,10.0229,5.7618,mp-11011,0.0191,JVASP-10725,RbNdTe4
2.7694,2.7474,2.7322,-41.159576,-2.43,11.613,412955,45,27.456,6.2338,2.1884,2.1855,2.0888,mp-11014,4.8169,JVASP-10726,K2TeOF4
3.4361,3.4360000000000004,3.4361,-43.893484,-0.713,15.892999999999999,95537,45,35.589,3.5604,2.6638,2.6636,2.6638,mp-11016,2.2337,JVASP-10727,RbCd(NO2)3
14.4283,14.4283,6.9698,-23.820415,-1.006,18.633,391204,70,30.322,0.966,10.4787,10.4784,6.059,mp-11132,0.0394,JVASP-10773,KPrTe4
3.1542,3.1542,2.7327,-69.580554,-2.497,35.806999999999995,95739,45,72.911,6.7035,2.5921,2.5921,2.3646,mp-11166,5.2085,JVASP-10775,BaZnCO3F2
6.5944,6.5804,6.4647,-31.160041999999997,-0.938,18.493,96915,60,37.922,3.4193,5.0898,5.0372,4.9996,mp-11582,2.0936,JVASP-10785,LiGaSe2
9.791,9.791,9.6166,-74.542909,-1.913,74.947,96971,50,166.011,1.2718,8.4818,8.4925,8.3134,mp-11583,0.8702,JVASP-10786,Zr2SN2
4.6168,4.6168,4.6168,-95.443087,-1.11,164.52,97567,50,255.7,5.3415,3.9783,3.9783,3.9783,mp-11607,4.2817,JVASP-10793,Si3N4
4.1948,4.6403,4.5778,-24.874274,-1.0590000000000002,9.747,409729,55,19.977999999999998,3.3305,3.302,3.5137,3.511,mp-11639,2.1517,JVASP-10795,Rb2GeS3
4.6954,5.4516,4.8839,-67.523075,-2.722,44.653,41121,45,110.189,3.3158,3.6932,4.1981,3.8343,mp-11691,2.2948,JVASP-10864,Nd2HgO4
4.2255,4.2849,4.1996,-66.774986,-2.0980000000000003,31.467,160643,50,117.744,2.3749,2.9603,2.9684,2.9513,mp-11794,0.9847,JVASP-10875,AlAgO2
5.1096,5.1813,5.2264,-48.499873,-1.2770000000000001,82.62,413356,50,125.5,3.2024,4.1189,4.1806,4.2194,mp-11919,2.1249,JVASP-10879,Sr(BeN)2
31.6815,31.6815,21.1818,-53.834179000000006,-1.4880000000000002,17.267,416040,45,32.510999999999996,1.5409,48.9802,48.9919,27.579,mp-12047,1.0265,JVASP-10888,K3Na(RuO4)2
5.3948,5.1775,5.6475,-50.774945,-0.9890000000000001,49.007,2523,50,60.611000000000004,2.5944,3.9431,3.8172,4.2113,mp-12177,1.8466,JVASP-10889,Te2O5
5.1117,4.9088,3.8137,-30.689581,-2.912,24.68,9927,45,72.533,6.3953,12.3699,11.7363,7.5642,mp-12265,3.8802,JVASP-10962,SrCuF4
6.7443,5.5416,6.7899,-39.641908,-1.6019999999999999,24.846999999999998,170864,60,42.078,2.3851,5.9344,4.8004,6.051,mp-12365,2.0258,JVASP-10969,KThCuS3
3.4252,3.7571,5.2143,-28.608076,-1.5819999999999999,7.84,170871,45,17.767,2.7853,3.139,3.4683,4.8909,mp-12368,2.539,JVASP-10970,SbS2NF6
8.4937,8.4762,7.6671,-48.831581,-1.4880000000000002,33.18,172849,60,77.367,2.0709,7.277,7.4784,6.7482,mp-12454,1.7606,JVASP-10976,ErCuS2
5.0812,5.0812,5.0812,-60.88715500000001,-3.31,85.58,109156,50,144.833,3.6628,4.2865,4.2865,4.2865,mp-12640,2.9227,JVASP-10997,Ba2DyNbO6
5.0842,5.0842,5.0842,-60.99410400000001,-3.323,87.32,109157,50,145.733,3.6652,4.2856,4.2855,4.2855,mp-12641,2.9210000000000003,JVASP-10998,Ba2HoNbO6
5.0956,5.0956,5.0956,-61.175523999999996,-3.347,91.3,109159,50,147.567,3.6472,4.2988,4.2988,4.2988,mp-12642,2.9135,JVASP-10999,Ba2TmNbO6
2.7294,2.7294,2.7388,-74.952494,-2.827,45.893,151883,55,80.48899999999999,6.4981,2.2412,2.2412,2.2635,mp-12807,4.1523,JVASP-11006,KAlO2
4.7867,4.8576,4.7686,-49.159425,-1.7730000000000001,83.7,157450,55,176.3,2.7082,3.4106,3.517,3.4548,mp-12978,1.2141,JVASP-11076,SnO2
4.3286,4.3835,4.3495,-69.02176800000001,-3.668,87.56700000000001,161597,50,165.71099999999998,5.6709,3.575,3.6096,3.5851,mp-13109,4.0962,JVASP-11082,SrHfO3
13.8312,11.8513,12.6021,-44.199628999999995,-1.314,19.427,245998,70,33.278,0.6331,11.1757,10.0392,10.4188,mp-13336,0.0027,JVASP-11120,RbSc5Te8
4.148,4.1408,4.0526,-65.967588,-2.505,69.74,416479,45,149.667,5.3789,3.3025,3.2987,3.2494,mp-13530,3.9364,JVASP-11128,SmAsO4
6.4385,6.6624,6.0717,-43.100522999999995,-1.2790000000000001,14.28,416622,55,24.533,2.8818,5.3672,5.4992,5.1473,mp-13538,2.1189,JVASP-11129,KPrSiSe4
9.7698,11.6604,8.2098,-51.864545,-1.926,44.347,419345,55,80.811,1.2492,8.0781,8.9822,7.1425,mp-13568,0.21600000000000003,JVASP-11132,NdS2
3.2712,2.1687,3.3652,-41.074605,-1.06,14.76,16338,45,26.933000000000003,4.1463,2.7522,1.9081,2.8139,mp-13658,3.1047,JVASP-11136,RbNO3
9.3989,9.3989,9.3989,-49.965579999999996,-0.996,44.84,28954,45,174.733,1.2262,7.7697,7.7697,7.7697,mp-14100,0.9284,JVASP-11166,Cd(RhO2)2
5.6363,5.1983,5.2127,-83.975848,-3.301,61.507,20407,45,142.378,4.1913,4.6874,4.3488,4.3537,mp-14152,3.5002,JVASP-11168,SmNbO4
5.9537,5.9537,6.8395,-70.997004,-0.8959999999999999,13.02,35299,60,25.433000000000003,3.0894,4.8245,4.8242,5.4715,mp-14249,2.5876,JVASP-11172,Th(PS3)2
4.3136,4.3136,4.3137,-51.060946,-2.8139999999999996,73.02,38328,50,130.6,5.0527,3.7125,3.7125,3.7125,mp-14292,4.0225,JVASP-11177,Ba2NdSbO6
5.8881,5.8881,5.8881,-53.830479000000004,-2.0669999999999997,28.52,37420,55,70.633,2.972,4.7301,4.7301,4.7301,mp-14304,2.0294,JVASP-11178,Lu2MgS4
4.0862,4.1393,4.3391,-85.997972,-3.1630000000000003,85.25299999999999,33885,50,191.78900000000002,5.2685,3.279,3.355,3.5528,mp-14333,4.0969,JVASP-11183,TaAlO4
3.443,3.4767,3.1969,-57.156389000000004,-2.602,67.333,30998,45,131.389,5.6077,2.7166,2.7283,2.6317,mp-14398,3.9786,JVASP-11190,CaSn(BO3)2
5.1191,5.2251,5.3677,-47.090626,-0.295,78.0,47100,50,137.9,3.8184,3.8679,3.8824,3.9410000000000003,mp-14433,2.4791,JVASP-11192,NaGe2N3
5.3626,5.3392,5.4541,-20.838526,-1.071,12.6,47112,50,20.733,2.8527,4.0568,4.0279,4.0598,mp-14435,1.8105,JVASP-11194,K3GeSe3
6.1873,6.1873,9.7649,-6.0066505999999995,-0.445,7.667000000000001,40699,60,18.778,1.5146,4.2719,4.2889,5.8447,mp-14623,0.3653,JVASP-11202,K5CuAs2
7.7001,7.1202,6.821000000000001,-35.369467,-0.9159999999999999,9.392999999999999,50462,50,20.422,1.1541,7.2859,7.0392,6.6736,mp-14635,1.092,JVASP-11206,Rb2VAgSe4
3.4361,4.0468,2.898,-32.718990999999995,-2.082,10.552999999999999,65186,50,21.789,4.8754,5.9182,10.0332,2.5153,mp-14653,2.995,JVASP-11211,AgSb2F12
6.6788,6.7012,6.5703,-44.407235,-2.221,30.48,67115,55,80.933,3.4153,5.3467,5.3551,5.306,mp-14787,2.5834,JVASP-11361,Tm2S3
7.2938,6.8349,7.2221,-39.2503,-1.865,36.54,78176,60,61.7,1.6319,6.2692,5.9426,6.3243,mp-14969,1.2611,JVASP-11367,BaErCuS3
4.7565,4.5089999999999995,5.5458,-17.592114000000002,-1.0070000000000001,15.833,202329,50,32.321999999999996,3.8482,3.5071,3.3310000000000004,4.0666,mp-15567,2.436,JVASP-11392,Na3AuS2
3.367,3.4581,2.9588,-40.362945,-2.62,26.326999999999998,97453,45,50.878,4.9484,2.7755,2.8504,2.4403,mp-18753,3.955,JVASP-11485,Na3Mo(OF)3
5.5966,5.6919,5.6567,-53.812906999999996,-1.705,25.92,18118,45,61.367,2.4679,4.5363,4.5925,4.6687,mp-18781,2.0366,JVASP-11664,CrCdO4
6.3081,6.1206,6.1997,-53.517618999999996,-2.151,11.253,250002,45,110.289,2.3969,5.1946,4.9593,5.0455,mp-18807,1.9636,JVASP-11671,V2Zn2O7
4.7545,5.1446,4.8704,-79.839011,-3.1839999999999997,53.713,157328,45,126.056,3.3457,4.1599,4.4912,4.2582,mp-18812,2.8207,JVASP-11673,NdVO4
4.0637,4.0637,4.2396,-74.782976,-2.5789999999999997,20.893,28019,45,43.522,4.195,3.4131,3.4131,3.5985,mp-18837,3.6034,JVASP-11683,KSc(MoO4)2
5.1714,5.5932,5.6647,-75.151154,-2.656,71.913,67905,50,145.122,4.1778,4.0162,4.3671,4.4118,mp-18875,0.6582,JVASP-11695,MgWO4
6.3302,6.3305,5.4698,-79.61661099999999,-3.227,66.253,69118,45,158.756,2.8662,5.3209,5.3211,4.6194,mp-18880,2.4843,JVASP-11699,ErVO4
5.3818,3.2512,4.5126,-54.626768000000006,-2.741,27.22,75418,50,51.3,2.6976,4.4654,2.7502,3.812,mp-18953,2.1254,JVASP-11724,NaV(OF)2
20.7508,18.442999999999998,20.0714,-76.097073,-2.801,54.453,93787,50,131.756,0.0111,23.7978,22.1373,23.3093,mp-18956,0.0107,JVASP-11725,SmCrO4
4.9374,5.3524,5.0662,-79.758742,-3.239,63.247,84235,45,146.211,3.2858,4.2093,4.5548,4.3166,mp-18960,2.7673,JVASP-11726,ErVO4
4.9969,5.4182,5.1316,-79.73691,-3.242,64.973,162335,45,151.189,3.2609,4.2409,4.5879,4.3518,mp-18993,2.7467,JVASP-11738,LuVO4
5.541,5.6098,5.6395,-64.127061,-2.332,46.8,18117,45,72.867,2.5216,4.7139999999999995,4.7482,4.9096,mp-19120,2.2279,JVASP-11780,MgCrO4
4.8959,5.306,5.0196,-79.834968,-3.23,60.747,88368,45,139.678,3.3149,4.1744,4.519,4.2783,mp-19121,2.7864,JVASP-11781,TbVO4
4.8698,5.2867,4.9876,-83.875547,-3.239,59.833,26894,45,136.95600000000002,3.2607,4.2025,4.5626,4.3043,mp-19133,2.7756,JVASP-11787,YVO4
4.7221,5.1067,4.8364,-79.84445600000001,-3.173,52.013000000000005,157327,45,123.089,3.3673,4.1219,4.4471,4.2178,mp-19169,2.8303,JVASP-11798,PrVO4
5.2208,5.4948,5.2994,-68.14869399999999,-2.576,38.873000000000005,83387,45,80.156,2.5913,4.7053,4.9468,4.7743,mp-19215,2.1614,JVASP-11813,CaCrO4
4.1405,4.1405,4.3811,-64.401174,-2.188,20.84,74557,45,35.167,3.1797,3.623,3.6237,3.7896,mp-19230,2.8436,JVASP-11816,K3NaCr2O8
5.722,6.132999999999999,5.8597,-81.138876,-3.0780000000000003,49.9,78073,45,158.267,2.9321,4.895,5.2337,5.0085,mp-19247,2.4698,JVASP-11823,ScVO4
4.5968,4.5859,4.6897,-75.198712,-3.091,38.586999999999996,73258,45,92.544,3.8395,3.9365,3.9181,4.0924,mp-19386,3.5,JVASP-12237,Sr3V2O8
4.9766,4.9757,4.6754,-42.7351,-2.343,42.96,65258,50,95.56700000000001,2.8224,3.5586,3.5586,3.6152,mp-20352,0.9721,JVASP-12302,Ba3In2O6
6.8571,7.3566,4.4495,-69.746849,0.034,15.907,143,50,33.844,3.5148,5.2955,5.6992,3.9024,mp-20605,2.6551,JVASP-12320,PbC2(SN)2
5.5633,5.5633,5.5633,-35.685856,-1.432,14.86,1412,55,25.767,3.1292,3.9189,3.9185,3.9189,mp-20694,1.9676,JVASP-12331,K2Pb2O3
5.1333,5.2418,4.9778,-34.899654999999996,-1.129,22.9,98376,50,52.7,4.2328,3.8962,3.8942,3.7109,mp-20716,3.0523,JVASP-12334,PbSeO3
4.0623,4.0623,3.7723,-29.538626,-2.449,15.32,152957,50,33.5,4.9161,2.975,2.975,2.7507,mp-20815,3.5408,JVASP-12342,SnPbF4
5.1984,5.0098,5.3683,-55.39209,-2.291,48.107,16806,50,98.411,2.4735,4.0273,3.8606,4.1238,mp-20944,1.4294,JVASP-12348,Sr2PbO4