epsx,epsy,epsz,fin_en,form_enp,gv,icsd,kp_leng,kv,mbj_gap,mepsx,mepsy,mepsz,mpid,op_gap,jid,formula
38.6333,38.6333,29.8993,-7.092631,-0.523,39.14,418580,85,78.7,0.027999999999999997,35.6037,35.6566,26.248,mp-12505,0.0057,JVASP-16758,LuAgSn
37.2929,46.1114,39.2666,-30.568002000000003,-0.8079999999999999,67.85300000000001,154701,100,93.72200000000001,0.0039,34.5873,41.894,36.3075,mp-12900,0.0038,JVASP-16871,HoSi
32.0789,47.8602,23.8833,-37.604136,0.359,211.34,160620,75,334.5,0.0165,32.4576,44.282,22.4727,mp-13076,0.0006,JVASP-16907,IrN2
34.204,31.37,31.1677,-3.7800309000000003,-0.11800000000000001,19.007,160882,65,46.943999999999996,0.1113,32.4552,37.0412,26.8144,mp-13089,0.003,JVASP-17162,Cu2SnTe3
16.6115,16.6115,17.3581,-7.508388799999999,-0.47200000000000003,38.4,162866,105,51.033,0.0048,14.6038,14.5835,17.4211,mp-13149,0.001,JVASP-17183,BaAlSi
36.9772,36.9772,71.6566,-14.408766,-0.133,58.473,163154,100,123.156,0.0078,32.4769,32.4769,106.7986,mp-13156,0.004,JVASP-17187,HfAg
7.7225,7.7225,7.7225,-2.8527357999999996,-0.873,40.42,163382,55,168.067,1.0753,4.8287,4.8287,4.8287,mp-13161,0.6657,JVASP-17188,ZnO
41.0386,41.0386,29.7366,-11.640075999999999,-0.6509999999999999,52.773,416544,65,80.35600000000001,0.1081,36.0671,36.049,28.2257,mp-13202,0.0095,JVASP-17197,YCuSn
38.9834,42.3966,51.9694,-38.150896,-1.113,74.027,420355,75,176.97799999999998,0.0037,42.4728,53.5733,61.7002,mp-13572,0.0024,JVASP-17266,ScSiPt2
23.877,23.7581,16.4833,-9.0095091,-0.973,25.18,44066,70,34.7,0.0304,10.968,11.0656,14.6159,mp-15697,0.0125,JVASP-17319,Sr2As
41.7736,41.7736,19.9364,-9.677567199999999,-1.0590000000000002,53.22,416244,65,110.9,0.0714,38.8584,38.8583,19.1951,mp-16734,0.0484,JVASP-17443,SmNiAs
7.4034,7.4034,5.695,-21.475274,-1.101,40.44,95672,55,134.8,1.1618,4.6416,4.6416,4.1604,mp-19723,0.3991,JVASP-17482,InAuO2
46.5964,46.5964,46.5964,-6.5981921,1.5730000000000002,18.96,77236,85,38.6,0.0568,44.5513,44.551,44.5519,mp-19758,0.0033,JVASP-17497,Sm3PbC
22.8178,22.8178,22.8178,-17.615382,-0.6809999999999999,63.98,56406,75,87.133,0.0653,20.7465,20.7466,20.7466,mp-19899,0.0127,JVASP-17545,Dy3SnC
16.1271,16.5573,16.2374,-4.677929499999999,-0.305,13.94,73389,60,23.666999999999998,0.1495,12.5645,12.9477,12.6627,mp-20320,0.0458,JVASP-17671,InTe
38.3778,38.3778,38.3778,1.5726607,-0.121,24.98,151387,80,36.933,0.0596,20.8839,20.8839,20.884,mp-20724,0.0354,JVASP-17807,Mg2Pb
10.0543,10.0543,10.0543,-5.811122,0.198,99.82,157516,55,162.067,0.7786,7.5688,7.5688,7.5688,mp-20812,0.3899,JVASP-17841,InN
43.1985,43.1985,31.9346,-7.1544084,-0.475,35.093,107102,65,65.689,0.0608,36.1515,36.1515,29.8133,mp-20880,0.0074,JVASP-17861,NdAgPb
29.7432,29.7432,29.7432,-3.6413567000000002,-0.40399999999999997,22.88,77865,80,59.833,0.2111,13.4966,13.4966,13.4966,mp-21039,0.0824,JVASP-17941,PbS
40.1751,40.1751,28.4469,-7.748955499999999,-0.601,41.773,55823,65,77.422,0.1149,34.2628,34.2631,26.2389,mp-21198,0.0239,JVASP-17998,DyAgSn
35.9183,35.9183,35.9183,-2.9261296000000003,-0.37200000000000005,17.68,77870,100,52.667,0.0729,28.2943,28.2937,28.2926,mp-21214,0.0259,JVASP-18007,PbSe
47.2227,47.2227,47.2227,-4.264392,-0.522,28.44,59567,85,60.4,0.0126,42.958,42.9587,42.9586,mp-22704,0.0114,JVASP-18277,YIn
33.1848,33.1848,33.1848,-5.1835996,-0.975,36.32,44129,90,55.133,0.0264,31.9011,31.901,31.9011,mp-22873,0.0174,JVASP-18311,SmBi
28.5524,28.5524,28.5524,-4.8948658,-0.91,38.26,58778,95,57.266999999999996,0.0366,26.6611,26.6578,26.6585,mp-22907,0.0198,JVASP-18316,DyBi
8.5805,8.5805,8.5805,1.0025957,0.10800000000000001,-0.54,161582,60,37.8,1.659,5.181,5.1814,5.1814,mp-22915,0.0976,JVASP-18318,AgI
40.9262,40.9262,40.9262,-5.4721448,-1.01,34.82,58844,60,52.433,0.2529,25.8192,25.819000000000003,25.8189,mp-23171,0.1974,JVASP-18342,PrBi
38.8988,38.8988,38.8988,-5.380243,-1.0,35.68,44133,60,53.367,0.2484,24.9644,24.964000000000002,24.9643,mp-23300,0.2048,JVASP-18361,NdBi
39.4449,81.8701,76.7879,-31.660121999999998,-0.29,258.96,24353,65,281.33299999999997,0.013000000000000001,38.7132,76.3183,75.4634,mp-27710,0.0017,JVASP-18457,CrB4
25.2755,25.2755,25.2755,-13.335514000000002,-0.948,8.66,26770,55,18.633,2.0523,43.2825,43.2825,43.2827,mp-27835,1.6406,JVASP-18468,K2OsBr6
14.72,14.72,11.7229,-0.25970308,-0.43799999999999994,12.113,26881,70,18.222,0.5785,8.7965,8.7964,8.1306,mp-27838,0.0942,JVASP-18469,Na3Bi