epsx,epsy,epsz,fin_en,form_enp,gv,icsd,kp_leng,kv,mbj_gap,mepsx,mepsy,mepsz,mpid,op_gap,jid,formula
3.6639999999999997,3.6502,3.7351,-14.717054000000001,-1.818,30.666999999999998,37444,40,51.078,2.5078,3.0359,3.0244,3.0951,mp-8256,2.1817,JVASP-2748,ZnPtF6
9.0136,8.9903,8.8253,-7.498129,-0.561,16.807000000000002,151954,60,30.644000000000002,2.1609,5.4838,5.4823,5.4711,mp-22304,0.8618,JVASP-3498,Cd(InSe2)2
5.6651,5.6896,5.1504,-13.810205999999999,-2.036,30.927,81401,50,47.144,3.5339,4.3283,4.3363,4.1617,mp-9365,2.3088,JVASP-1663,RbTbS2
4.3645,9.7038,8.827,-5.333214599999999,-0.7090000000000001,8.887,71652,65,17.944000000000003,1.8298,3.741,6.8509,6.7818,mp-9008,1.0319,JVASP-2898,RbTeAu
4.4519,4.4519,4.4519,-13.427309,-1.29,11.02,31114,50,21.267,2.1625,3.8135,3.8108,3.8199,mp-23513,1.6459,JVASP-3684,K2PtCl6
2.3659,2.3659,2.3659,-9.739578100000001,-2.737,36.58,56097,45,78.367,6.6027,1.8959,1.8959,1.8959,mp-5878,4.1604,JVASP-2478,KZnF3
10.5437,9.2255,7.9498,-24.427406,-1.329,22.133000000000003,202009,60,46.422,0.1071,9.8233,9.1871,7.9205,mp-4009,0.0365,JVASP-2319,BaPdS2
4.8137,4.5654,4.3735,-31.586046000000003,-2.01,6.227,108934,45,36.944,1.1731,7.5028,6.2552,5.7705,mp-19414,0.9231,JVASP-3396,K3CrO4
3.9595,3.7041,6.8527,-19.072999,0.037000000000000005,28.206999999999997,95264,45,101.444,3.9283,3.0211,2.8545,4.9081,mp-10969,2.3413,JVASP-1729,CdCN2
11.5845,11.5845,9.2421,-8.7203836,-0.605,12.253,79362,60,24.421999999999997,1.8415,8.487,8.4856,7.1333,mp-28944,1.217,JVASP-4026,BiTeCl
4.063,4.0803,3.7292,-18.597263,-2.8110000000000004,46.266999999999996,27332,45,78.344,5.0433,3.2716,3.2798,3.1131,mp-7973,3.4488,JVASP-1573,RbNdO2
6.6806,6.6806,5.6814,-17.468951999999998,-1.3980000000000001,34.086999999999996,29143,50,67.578,4.0048,5.0374,5.0374,4.3222,mp-22939,2.8704,JVASP-3534,BiClO
19.3115,18.9856,16.7946,-4.8622974,-0.19399999999999998,17.692999999999998,59911,60,35.056,1.4127,8.2954,8.26,8.0463,mp-3167,0.7388,JVASP-2217,Hg2GeSe4
5.1253,4.5851,4.9358,-19.56415,-1.985,16.213,31590,55,29.789,3.7473,4.5074,4.149,4.3913,mp-27975,2.6854,JVASP-3915,NdBr3
3.9126,3.9249,3.6579,-18.924433999999998,-2.97,55.14,15159,50,89.26700000000001,5.4721,3.135,3.1397,3.0391,mp-7476,3.6545,JVASP-1543,RbDyO2
6.6966,6.6857,6.6316,-15.44634,-0.868,22.247,51422,55,38.078,3.2205,5.0488,5.0289,5.0504,mp-3159,2.0941,JVASP-2211,Al2CdSe4
4.4384,4.4384,4.4384,-9.229320199999998,-1.067,10.5,26700,50,20.6,3.2199,3.5892,3.5883,3.5941,mp-27832,2.1478,JVASP-3879,Tl2SnCl6
9.1759,9.1759,9.5818,-8.541444,-1.044,38.733000000000004,100041,60,53.522,1.807,7.5639,7.5639,7.906000000000001,mp-9564,1.3743,JVASP-2991,Ca(MgAs)2
4.89,4.7919,6.212999999999999,-8.983006800000002,-0.506,10.26,300110,55,19.633,2.716,3.5619,3.5077,4.2927,mp-9872,1.2212,JVASP-3060,K4BeP2
5.7799,5.7799,5.8712,-3.9660263,-0.951,12.46,642883,60,36.333,3.6692,4.6065,4.6046,4.6777,mp-1039,2.5303,JVASP-1273,MgTe
24.5696,24.5696,28.3447,-15.243160000000001,-0.79,44.773,100270,60,110.35600000000001,0.4457,19.5688,19.5591,21.4992,mp-9581,0.0966,JVASP-3015,Th(CuP)2
6.084,6.0847,6.0833,-31.164091,-3.3539999999999996,74.387,100464,45,112.344,2.6508,5.7024,5.7006,5.7017,mp-5020,2.444,JVASP-1231,BaTiO3
3.3234,3.392,3.7501,-9.0533734,-1.9069999999999998,41.453,78895,45,59.022,3.0198,2.3392,2.3895,2.6527,mp-341,1.8492,JVASP-2091,PbF4
3.8356,3.8356,3.8356,-9.1748148,-3.2760000000000002,80.06,163628,45,114.93299999999999,5.29,3.116,3.116,3.116,mp-2605,3.7422,JVASP-1405,CaO
6.8758,7.6672,9.9463,-8.8037398,-0.584,13.5,300201,55,27.133000000000003,1.7492,4.9167,5.4674,7.0655,mp-9687,0.9557,JVASP-3030,K2PAu
3.9445,3.9445,3.9445,-1.5570822,-1.483,19.52,33614,45,97.633,3.4297,2.4319,2.4319,2.432,mp-8177,0.8617,JVASP-1591,HgF2
5.7864,6.0075,9.3698,3.6485652,-0.386,12.073,157980,50,25.555999999999997,2.6180000000000003,4.3317,4.4585,6.372000000000001,mp-23177,1.8177,JVASP-1984,HgBr
15.6211,15.6211,12.9997,-5.752900299999999,-0.643,31.613000000000003,30915,65,53.856,1.3631,9.4514,9.4863,9.0864,mp-8279,0.0559,JVASP-2760,Ba(CdP)2
13.8439,13.6714,14.7084,-12.753963,-0.498,8.24,62048,60,14.5,1.1405,10.3032,10.1796,10.9085,mp-28483,0.5227,JVASP-3996,WBr6
3.7679,3.786,5.8536,-8.0873553,-1.208,28.4,27409,50,51.9,2.9149,2.8821,2.8944,4.3022,mp-4961,1.8165,JVASP-2394,Na2HgO2
6.2024,6.2024,6.2024,-5.2316248,-2.2119999999999997,42.94,652207,50,57.667,3.4960000000000004,4.3554,4.3555,4.3554,mp-286,2.0524,JVASP-1251,YbSe
8.4809,8.4701,8.415,-7.9837275,-0.611,21.74,163949,55,37.2,2.7232,5.8934,5.8912,5.8811,mp-3772,1.3178,JVASP-2277,Cd(GaSe2)2
4.8607,4.8607,5.0808,-19.799681,-1.996,18.887,31583,50,36.078,4.5252,4.3329,4.3367,4.5339,mp-23221,3.5256,JVASP-3639,PrBr3
12.2871,12.7409,14.755999999999998,-8.896452900000002,-0.423,16.167,52570,65,54.478,1.5603,6.3592,6.3435,6.275,mp-5518,0.6418,JVASP-2448,GaAgSe2
5.3405,5.3405,5.3405,-6.3986376,-1.114,19.64,642399,55,27.033,3.0448,5.0012,5.0012,5.0012,mp-2530,2.6048,JVASP-1399,Li2Te
12.186,12.4785,5.7861,-11.290428,-1.7619999999999998,31.3,30052,50,45.266999999999996,0.9616,12.599,12.9226,5.522,mp-23162,0.8656,JVASP-1981,ZrCl2
5.7115,5.7115,5.893,-28.662786999999998,-3.3369999999999997,68.233,25809,50,121.256,3.6311,4.6771,4.6771,4.8151,mp-13974,2.318,JVASP-3258,Ho2SeO2
2.8179,2.8179,2.8179,-4.0045024,-2.313,34.08,250165,45,106.2,6.3799,2.0034,2.0034,2.0034,mp-241,3.0624,JVASP-1245,CdF2
3.7647,3.7781,3.502,-19.252091,-3.0639999999999996,61.0,27002,50,93.93299999999999,5.9921,2.9638,2.9716,2.8059,mp-7959,4.1686,JVASP-1567,KErO2
8.0236,8.0234,8.0221,-16.231842,-0.682,29.873,28734,60,66.422,2.5087,3.6754,3.7496,3.8028,mp-8016,1.0689,JVASP-2724,AlCuSe2
4.516,4.3766,4.5567,-35.618186,-3.071,58.9,62228,45,138.7,4.7971,3.6636,3.5494,3.656,mp-31049,3.6042,JVASP-4152,NdO2
14.7655,13.4771,14.5805,-13.572175,-0.529,21.747,56853,55,42.443999999999996,0.8957,13.0582,11.0163,12.4241,mp-22945,0.7228,JVASP-3537,TeRhCl
5.7203,5.7481,5.1565,-13.856154,-2.015,29.213,81398,50,44.989,3.5601,4.4068,4.4157,4.2524,mp-9364,2.2614,JVASP-1660,RbSmS2
3.2046,3.2046,3.2046,-1.5053301000000001,-1.5819999999999999,8.74,52244,45,13.767000000000001,6.3837,2.5894,2.5858,2.6038,mp-22898,4.0924,JVASP-1942,KI
8.6803,6.0203,5.7038,-9.587977699999998,-0.976,18.58,40431,55,34.433,1.4645,6.9619,5.0191,4.7263,mp-8622,1.0443,JVASP-2841,Rb2PtSe2
14.1885,14.1885,14.1885,-12.756394,-2.05,142.66,644802,55,183.267,1.2559,7.066,7.066,7.066,mp-1975,0.3432,JVASP-1363,TmN
4.984,4.9844,4.9765,-13.025359,-1.801,43.533,153101,45,65.322,3.2951,4.0128,4.0149,3.9725,mp-22936,2.3122,JVASP-1960,Ca2NCl
11.0404,11.0404,11.3059,-13.539314000000001,-1.4069999999999998,38.44,15298,55,87.833,1.037,12.9343,13.1863,13.7998,mp-6980,0.9259,JVASP-1519,ScCuS2
5.2578,5.2578,5.2578,-0.71463175,-0.47200000000000003,8.7,64734,50,50.0,2.8783,3.6091,3.6091,3.6091,mp-22922,0.9251,JVASP-1954,AgCl
10.7211,10.2849,10.8951,-9.9320278,-0.408,9.26,48133,60,21.666999999999998,2.0852,7.9289,7.6242,8.0469,mp-8393,1.4495,JVASP-2802,Tl3SbS3
4.1964,4.1964,4.2702,-13.1334,-1.361,26.267,61091,55,37.811,4.7808,3.432,3.4319,3.4102,mp-8452,3.3404,JVASP-2826,NaLiS
10.6717,11.9098,11.0308,-6.4304551,-0.595,9.993,25346,55,23.221999999999998,1.5531,7.6935,8.5408,7.9393,mp-22483,0.8397,JVASP-3504,NaInTe2
8.8654,8.8654,8.1366,-3.6125472999999997,-0.6759999999999999,16.18,41709,70,25.733,1.9673,6.7935,6.7935,6.2702,mp-7089,1.4026,JVASP-2526,KMgSb
3.8399,3.8399,3.8399,-2.860015,-1.166,6.66,36584,50,16.0,3.7863,2.7532,2.7479,2.7739999999999996,mp-11327,1.8419,JVASP-1738,Rb2Se
10.182,10.182,6.9688,-23.637255,-1.683,38.48,59124,55,58.633,1.4169,7.8023,7.8557,6.4712,mp-28479,0.8596,JVASP-3993,Sc2CCl2
9.3911,8.8524,7.9596,-2.4160002,-0.47200000000000003,11.36,1155,60,20.367,1.9601,6.7124,6.3349,5.7577,mp-7643,1.2667,JVASP-2613,K2AgSb
17.5639,12.3367,10.5398,-33.981569,-1.0959999999999999,29.973000000000003,42072,60,46.656000000000006,3.3714,3.8387,4.6799,3.7345,mp-9920,0.0583,JVASP-3078,TiS3
3.6198,2.8929,4.812,-6.0703653,-0.94,9.387,31689,45,20.011,4.4110000000000005,2.6808,2.2041,3.4476,mp-23297,2.1209,JVASP-3651,BrF3
4.0384,4.0603,3.6585,-18.70485,-2.8169999999999997,46.44,40266,45,77.3,5.1974,3.2465,3.2609,2.9994,mp-4519,3.6539,JVASP-1486,KPrO2
9.637,9.637,8.8782,-48.80019,-1.5830000000000002,64.587,85770,60,130.344,1.2078,7.6623,7.6626,7.6292,mp-9517,0.8181,JVASP-2979,SrTiN2
9.0193,7.4653,6.8493,-5.8419394,-0.446,14.713,402572,60,26.322,2.1085,6.2035,5.3542,4.9599,mp-9778,1.2601,JVASP-3045,K2AgP
3.7691,3.7691,3.7691,-4.2563654,-1.212,18.92,656376,50,30.033,4.9691,2.5282,2.5281,2.5291,mp-648,2.5899,JVASP-1171,Na2S
6.6547,6.6547,5.474,-27.837563,-3.239,62.5,94474,55,115.133,2.5689,5.2812,5.2812,4.5145,mp-10930,1.3535,JVASP-3135,TbSF
4.3296,4.3296,3.9231,-40.868352,-2.949,64.64699999999999,1270,50,104.14399999999999,4.5912,3.949,3.9509,3.6125,mp-7650,3.5377,JVASP-2616,RbScO2
2.8184,2.8184,2.8184,-2.3948817000000004,-1.87,10.9,18015,45,17.267,7.4805,2.2504,2.2482,2.2595,mp-23251,4.6015,JVASP-1993,KBr
7.5473,7.5473,7.5473,-12.88114,-0.769,6.52,65141,50,22.666999999999998,2.0591,5.2198,5.2199,5.2198,mp-8703,1.057,JVASP-2850,Na3SbSe4
6.1694,6.3947,9.0136,-18.578875,-0.843,12.847000000000001,60138,60,22.811,2.4469,4.6045,4.7614,6.3668,mp-11703,1.4294,JVASP-3162,KSbS2
8.981,8.981,9.2825,-10.652004,-1.064,39.94,30914,55,53.8,1.6748,6.9196,6.9792,7.1083,mp-8278,1.1513,JVASP-2757,Ba(MgP)2
12.2341,12.2341,11.4773,-15.388585,-0.9309999999999999,23.18,160121,55,44.266999999999996,1.2973,9.436,9.4361,8.9872,mp-3551,0.8687,JVASP-2250,TbAgTe2
17.5199,26.3643,10.9481,-12.063639,-1.3019999999999998,57.633,159388,55,125.156,0.006,28.6133,45.0391,13.1159,mp-19149,0.0023,JVASP-1864,NaNiO2
4.4619,4.4619,4.8306,-23.788648000000002,-1.261,175.82,413358,50,191.9,5.5002,3.9141,3.9141,4.1463,mp-11917,4.4059,JVASP-3177,Mg(BeN)2
2.883,2.883,2.883,-11.201476,-2.05,76.02,108886,45,86.2,5.9239,2.7031,2.7031,2.7032,mp-1960,5.2791,JVASP-1360,Li2O
3.7455,3.7455,3.0231,-11.393172,-1.405,9.987,37014,50,17.178,2.2048,3.1295,3.1295,2.4336,mp-22934,1.6175,JVASP-3525,K2PtCl4
7.8403,7.8995,6.6451,-8.8306401,-1.455,21.587,71560,55,31.844,2.0448,5.6541,5.6835,5.0648,mp-9263,1.3307,JVASP-1648,KErTe2
4.7021,4.6581,4.5723,-10.451151,-1.837,6.527,90996,50,20.178,3.8021,3.8881,3.8631,3.719,mp-720,3.1073,JVASP-2106,TlF
4.1361,4.1546,3.821,-12.080286,-1.815,61.233000000000004,34600,50,100.85600000000001,4.1031,2.9511,2.9604,2.7933,mp-5175,2.1545,JVASP-1498,NaInO2
5.1741,4.9219,8.9786,-3.6644607000000002,-0.451,9.887,67263,55,18.711,2.4018,3.6512,3.5053,5.8529,mp-8753,1.0176,JVASP-2859,K4HgP2
6.0282,6.0635,5.4337,-13.986194,-2.016,35.187,56229,55,51.911,3.2696,4.7427,4.7643,4.3794,mp-5694,2.3282,JVASP-1507,NaHoS2
7.9981,8.0616,6.7923,-9.3259715,-1.4869999999999999,19.613,98656,60,29.289,1.81,6.7967,6.8381,6.0108,mp-11740,1.2554,JVASP-1744,KNdTe2
8.0565,8.0565,14.9679,-11.077134,-0.625,14.187000000000001,84003,65,28.544,1.6053,5.9474,5.9473,11.5277,mp-29138,0.8587,JVASP-4044,KAuSe2
7.1448,7.1448,6.2528,-24.20293,-1.229,25.386999999999997,70059,55,40.244,2.4073,5.8917,5.8918,5.3018,mp-239,1.4624,JVASP-2088,BaS3
5.3105,5.3105,4.6046,-26.65979,-2.918,31.3,15420,60,47.633,4.5069,4.6269,4.6271,4.0931,mp-27439,3.4301,JVASP-3807,TmIO
4.5579,4.5579,4.5579,-11.657695,-1.349,9.18,29027,50,17.5,2.9561,3.8556,3.8549,3.8625,mp-22975,2.4476,JVASP-3555,Rb2TeCl6
5.7042,5.7326,5.1404,-13.938367000000001,-1.999,27.893,81397,50,43.821999999999996,3.3944,4.5121,4.5211,4.3328,mp-9363,2.2522,JVASP-1657,RbNdS2
7.6338,8.0902,14.7097,4.9722485999999995,-0.213,11.58,157981,55,23.633000000000003,2.0667,5.6529,5.9087,9.6074,mp-22859,1.385,JVASP-1918,HgI
9.0398,9.0398,7.3088,-12.027961999999999,-0.474,40.887,100091,55,53.343999999999994,2.3225,6.9993,6.9993,5.6739,mp-9573,1.4992,JVASP-3012,NaBeAs
3.0693,3.0693,3.0693,-2.3120013999999998,-1.683,14.32,61672,50,22.866999999999997,6.8477,2.3315,2.3308,2.334,mp-22916,4.4044,JVASP-1951,NaBr
5.9138,5.9138,5.9138,-16.279903,-0.868,6.94,44707,50,25.666999999999998,2.8407,4.4695,4.4657,4.4697,mp-10167,1.8918,JVASP-3084,Na3SbS4
4.2523,4.2523,4.1359,-3.7160474999999997,-1.7180000000000002,8.747,52280,50,14.844000000000001,4.3738,3.7,3.7163,3.7073,mp-30031,3.4465,JVASP-2065,CaI2
5.5564,5.5564,5.5564,-7.9530156000000005,-0.852,9.56,26705,50,20.733,2.9472,4.4797,4.4797,4.4797,mp-27833,2.4107,JVASP-3882,Tl2TeCl6
1.8665,1.8665,1.8665,-20.560496,-2.572,15.32,56251,45,25.733,6.8782,1.5330000000000001,1.5330000000000001,1.5329,mp-5955,4.9184,JVASP-2484,NaSbF6
21.6563,21.6564,21.6563,-12.680067999999999,-0.456,62.7,107120,55,121.2,1.03,20.4344,20.4342,20.434,mp-31451,0.9859,JVASP-2080,ZrCoBi
3.1177,3.1177,3.1177,-1.5132108999999998,-1.5919999999999999,7.74,61536,50,12.6,5.8133,2.5593,2.5569,2.5691,mp-22903,3.9687,JVASP-1945,RbI
4.6531,4.6531,4.5303,0.19831467,-0.885,10.507,25782,55,22.744,4.4452,3.4795,3.4844,3.3856,mp-27934,2.7423,JVASP-3906,CdBr2
4.9173,5.1145,4.9084,-25.11538,-1.544,21.82,16239,50,40.367,3.3086,3.6037,3.7114,3.6527,mp-30988,2.0021,JVASP-4143,KBiO2
4.0843,4.0684,4.169,-12.291212,-1.7280000000000002,22.433000000000003,26166,45,41.321999999999996,1.9239,3.3931,3.3791,3.4683,mp-13984,1.8824,JVASP-3264,CdPdF6
4.7885,4.7885,4.3878,-28.745019,-3.0810000000000004,35.027,202064,50,55.378,6.1025,3.9712,3.9711,3.7073,mp-29327,4.4114,JVASP-4059,SmBrO
3.6487,3.5557,5.0288,-10.479199000000001,-1.7180000000000002,13.827,83411,45,56.178000000000004,3.3961,2.9868,2.9295,3.8375,mp-3915,2.4144,JVASP-1456,BaHgO2
4.0181,4.0338,3.7071,-18.68211,-2.8689999999999998,49.306999999999995,27333,45,82.244,5.3508,3.2034,3.21,3.0731,mp-7974,3.6091,JVASP-1576,RbSmO2
5.0792,5.0792,5.0792,-11.093878,-1.216,10.32,26692,55,18.5,2.9307,4.2803,4.2785,4.2869,mp-27829,2.3953,JVASP-3870,Rb2SeCl6
7.6616,7.6562,7.7667,-12.645406,-1.579,27.273000000000003,54291,50,46.622,2.206,6.2945,6.2885,6.414,mp-3664,1.7098,JVASP-1450,NdTlS2
5.9158,5.9491,5.2354,-8.968305099999998,-1.1640000000000001,29.12,33554,50,77.3,1.9569,4.5987,4.6227,4.1101,mp-8176,0.9843,JVASP-1588,RbTlO2
5.7228,5.742999999999999,5.2769,-10.087117999999998,-1.171,40.733000000000004,202429,50,121.85600000000001,1.3195,3.8912,3.8944,3.7771,mp-22660,0.3919,JVASP-1912,InAgO2
5.7956,5.6471,5.6172,-8.9893455,-1.126,14.547,1570,50,26.278000000000002,2.5821,4.2851,4.0958,4.044,mp-27716,1.4995,JVASP-3843,KTlO
10.4465,10.3726,9.9631,-7.1006803,-0.479,21.107,83712,55,36.944,2.0752,6.7113,6.6959,6.6123,mp-4730,0.8722,JVASP-2373,Ga2HgSe4
8.98,6.2811,5.8987,-9.6506666,-0.9840000000000001,19.38,40430,55,36.067,1.5030000000000001,6.9577,5.037,4.7045,mp-8621,1.0190000000000001,JVASP-2838,K2PtSe2
3.8304,3.8304,3.8304,-8.5085112,-3.0260000000000002,60.06,249178,45,93.6,4.9578,3.1251,3.1251,3.1259,mp-2472,3.4051,JVASP-1390,SrO
12.6495,12.6495,12.0266,-6.692938099999999,-0.8029999999999999,48.787,100271,60,73.544,1.4693,9.1616,9.1616,8.7944,mp-9582,0.8145,JVASP-3018,Yb(ZnP)2
2.3792,2.3792,2.3791,-19.361765,-2.719,55.86,409507,45,55.067,7.9687,1.8474,1.8478,1.8452,mp-588,5.0302,JVASP-2097,GaF3
8.5202,8.5202,8.5202,-7.3078066999999995,-0.524,8.5,172174,60,115.167,0.4878,7.085,7.085,7.085,mp-361,0.1349,JVASP-1216,Cu2O
2.7883,2.7883,2.7883,-2.3749272999999995,-1.8659999999999999,9.5,18017,45,15.533,6.9325,2.2595,2.2575,2.2677,mp-22867,4.4359,JVASP-1921,RbBr
5.3444,7.1848,14.0338,0.81769909,-0.065,7.593,22120,75,12.922,2.0638,4.1152,5.4107,10.382,mp-27639,1.2602,JVASP-2029,IBr
5.0133,5.0133,4.5208,-12.078278,-1.9269999999999998,21.807,30287,50,57.111000000000004,5.0229,3.9488,3.9488,3.637,mp-22964,3.8164,JVASP-3552,PbClF
9.1307,9.1307,9.8254,-27.375574,-1.518,30.7,418474,55,55.2,1.4275,8.2508,8.3971,8.6821,mp-13312,0.9979,JVASP-3237,ScTlS2
8.2401,8.2698,8.0891,-3.5257616,-0.461,6.98,36182,50,12.232999999999999,2.9406,6.3976,6.404,6.3647,mp-22849,2.3652,JVASP-3510,BiI3
5.1365,4.5846,4.9721,-19.146773,-1.969,16.2,31591,55,29.933000000000003,4.0014,4.3781,4.0466,4.3173,mp-27976,2.7111,JVASP-3918,SmBr3
6.3223,6.3078,5.6508,-16.806005,-1.722,18.387,50194,60,28.511,2.9213,5.1443,5.1109,4.7219,mp-28458,2.1941,JVASP-3990,ErSeI
5.6254,5.6484,5.1347,-13.784557000000001,-2.042,31.8,81403,50,48.367,3.5441,4.2805,4.2878,4.1231,mp-9366,2.3362,JVASP-1666,RbHoS2
2.4246,2.1691,5.3997,-20.241457,-0.15,8.232999999999999,77323,45,34.256,5.2954,2.0588,1.8497,4.4948,mp-22003,4.0416,JVASP-1906,NaN3
6.7837,6.8273,6.0391,-11.730689,-1.7890000000000001,29.86,50195,55,44.167,2.7281,5.334,5.3612,4.87,mp-8584,1.9580000000000002,JVASP-1606,NaErSe2
4.8607,4.5656,4.5652,-24.656582,-1.786,99.31299999999999,157449,55,186.18900000000002,2.385,3.5426,3.3129,3.3129,mp-856,0.8949,JVASP-1228,SnO2
2.7145,2.7145,2.6338,-32.340689000000005,-3.437,19.053,280318,45,36.489000000000004,5.0177,2.3757,2.3764,2.3047,mp-3970,4.6997,JVASP-2307,K2TiF6
21.424,21.8449,24.4797,-12.722128,-0.10300000000000001,29.467,44257,65,57.778,1.2146,9.0835,9.0929,9.1512,mp-5213,0.7613,JVASP-2415,CdSnP2
11.132,10.8765,9.5458,0.069891171,-0.39799999999999996,9.892999999999999,1156,60,18.122,1.6414,7.6472,7.4022,6.6094,mp-27549,0.9482,JVASP-3819,K2AgBi
10.4196,12.4243,8.1401,-26.644506,-1.005,46.027,6157,45,114.77799999999999,0.4292,8.8988,12.5245,7.0706,mp-27562,0.0708,JVASP-3822,Na2Pd3O4
14.8204,14.8204,14.7472,-3.256669,-0.69,22.673000000000002,100049,70,34.056,1.1512,10.9365,10.9334,11.1922,mp-29209,0.2145,JVASP-4053,Ba(MgBi)2
5.0248,5.0248,5.0248,-16.704409,-2.14,29.74,36002,60,41.766999999999996,2.4688,3.9771,3.9771,3.9772,mp-28069,1.7131,JVASP-3945,Ca3AsCl3
9.2182,9.2147,9.1966,-11.527478,-0.36200000000000004,17.053,28746,60,45.489,1.9935,6.9488,6.9409,6.8996,mp-14092,1.074,JVASP-3288,AlAgTe2
6.7009,6.7009,6.7009,-7.273846099999999,-0.9520000000000001,9.22,36228,55,18.367,2.1607,5.4565,5.4551,5.4626,mp-23036,1.5275,JVASP-3591,K2SeBr6
8.4019,8.4019,7.6919,-37.845128,-3.123,66.06,26654,50,127.0,1.329,7.7124,7.7128,7.0865,mp-7950,0.9692,JVASP-2700,ThSeO
14.224,14.224,15.4191,-2.6538067,-0.621,24.0,100048,70,37.167,1.1388,10.9892,10.9892,11.69,mp-29208,0.1864,JVASP-4050,Ca(MgBi)2
3.487,3.487,3.487,-9.846361199999999,-0.39,35.16,159175,45,37.9,5.4997,2.5631,2.5631,2.5631,mp-23737,3.4711,JVASP-3690,KMgH3
4.4614,4.4614,4.4897,-10.92738,-1.3119999999999998,15.0,78878,55,25.1,4.2459,3.6595,3.6595,3.5944,mp-9250,2.5759,JVASP-2928,RbLiSe
5.9514,5.9834,5.4151,-16.090677,-2.0380000000000003,34.167,76543,55,50.544,3.1023,5.0552,5.0717,4.7764,mp-10226,2.3255,JVASP-1690,NaYS2
10.9042,10.9042,11.1621,-5.957520099999999,-0.852,26.56,100047,65,38.867,1.2753,8.8781,8.8796,9.106,mp-9567,0.9118,JVASP-3000,Ba(MgSb)2
3.0979,2.9246,4.7504,-24.873568,-0.9690000000000001,18.427,59860,45,66.044,5.4741,2.608,2.4838,3.7923,mp-12317,3.2289,JVASP-1762,SrCN2
5.9747,6.011,8.8051,-15.036076000000001,-0.917,51.7,69049,50,88.1,1.6545,4.8527,4.871,6.2789,mp-8818,0.8415,JVASP-2871,Ca2ZnN2
10.1276,10.1285,10.1345,-11.185805,-0.37,25.173000000000002,28735,60,51.456,1.8218,8.4929,8.4816,8.4734,mp-8017,1.102,JVASP-2727,AlCuTe2
5.7624,5.7624,5.8238,-11.744039,-0.529,41.353,156902,50,55.821999999999996,2.3841,4.2956,4.2957,4.1651,mp-2251,1.3545,JVASP-1375,Li3N
6.7596,9.1962,8.2108,-7.0215633,-0.198,7.792999999999999,405774,55,14.655999999999999,1.2445,5.6332,7.4503,6.8244,mp-29496,1.1846,JVASP-4080,Pd(SeBr3)2
3.7536,3.7536,3.7536,-3.0079781000000003,-1.207,8.64,60440,50,18.1,4.3041,2.7593,2.7541,2.7802,mp-8426,2.171,JVASP-1603,K2Se
3.0573,3.0573,3.0573,-18.906629000000002,-2.267,10.24,28675,45,22.467,2.2259,2.7565,2.7565,2.7565,mp-14088,2.1761,JVASP-3282,Rb2PdF6
9.2497,9.2497,9.2497,-19.280401,-0.644,26.6,628957,50,44.833,1.1968,8.4581,8.4582,8.4502,mp-3762,1.1799,JVASP-2274,VCu3S4
8.948,8.948,8.1559,-6.2835408,-0.71,22.74,41798,65,35.8,2.2268,6.4399,6.4399,6.0642,mp-5962,1.1575,JVASP-2487,NaMgAs
2.7222,2.7222,2.7222,-19.623798999999998,-2.467,25.12,33786,50,54.067,3.7845,2.0605,2.0605,2.0605,mp-8289,2.9403,JVASP-2769,SnF3
6.3041,6.3041,6.3041,-4.1739245,-1.855,24.54,652879,55,35.6,2.3095,5.8527,5.8486,5.8691,mp-1958,1.7718,JVASP-1357,SrTe
9.3167,8.1155,7.3841,-4.331665900000001,-0.47600000000000003,13.64,1154,60,24.066999999999997,2.0872,6.4435,5.7664,5.2997,mp-7642,1.2867,JVASP-2610,K2AgAs