epsx,epsy,epsz,fin_en,form_enp,gv,icsd,kp_leng,kv,mbj_gap,mepsx,mepsy,mepsz,mpid,op_gap,jid,formula
16.715,16.715,15.0888,-6.2838366,-0.321,41.107,67773,95,62.078,1.3135,9.6381,9.638,9.9638,mp-8883,0.5154,JVASP-8185,GaAs
9.5117,9.5117,9.5205,-0.032943976,-0.452,22.026999999999997,67779,60,45.111000000000004,2.2585,6.771,6.7711,6.8922,mp-8884,1.0786,JVASP-8186,ZnTe
16.4049,16.5288,13.8523,-24.82465,-0.6809999999999999,91.087,71136,55,209.544,1.0173,12.3552,12.3759,11.9281,mp-8927,0.5781,JVASP-8187,TaCuN2
30.7723,30.7723,27.8503,-51.706339,-0.309,140.54,71503,55,196.0,0.4164,29.486,29.486,26.366,mp-8938,0.0728,JVASP-8188,Si2Mo
31.447,31.447,29.5556,-55.894732999999995,-0.11699999999999999,138.52,71504,60,209.067,0.0753,28.9954,28.9953,27.165,mp-8939,0.0401,JVASP-8189,Si2W
8.6162,8.6162,6.9047,-22.311246,-0.49700000000000005,21.4,72529,45,33.533,1.5542,7.2153,7.2195,5.69,mp-8976,0.787,JVASP-8190,Cu2WS4
16.7475,16.9003,16.0484,-29.42496,-2.8360000000000003,2.813,73133,55,26.156,3.6062,16.4973,16.7891,14.802999999999999,mp-9056,3.4879,JVASP-8191,ZrPdF6
16.8172,14.9974,17.8479,-28.366835,-0.721,38.387,74479,60,56.011,0.3433,11.5174,11.1261,11.5944,mp-9122,0.049,JVASP-8194,CaP3
3.844,4.7808,4.6539,-32.055265999999996,-0.18600000000000003,26.566999999999997,411190,50,59.978,3.0372,3.4835,4.2723,4.1534,mp-917,2.383,JVASP-8195,CaC2
8.3925,8.3925,7.6911,-29.617068,-2.069,38.28,75572,60,88.1,2.3454,6.5887,6.5886,6.1293,mp-9194,1.4738,JVASP-8196,SmCuSeO
8.3462,8.3462,10.1095,-0.86870161,-0.135,13.993,70054,55,21.122,2.3984,5.9125,5.9138,6.8481,mp-9252,1.3993,JVASP-8198,HgS
8.3991,8.3991,7.7488,-29.570809999999998,-2.103,41.373000000000005,80359,60,92.72200000000001,2.3015,6.6213,6.6213,6.2607,mp-9304,1.3840000000000001,JVASP-8201,DyCuSeO
8.3445,7.9091,7.8536,-13.647248999999999,-0.431,11.78,82143,55,41.833,1.45,5.0632,4.8772,4.8534,mp-9490,0.4272,JVASP-8205,KAg2SbS4
7.494,7.494,8.8284,-20.435604,-0.204,106.667,85739,55,140.344,2.5088,6.5258,6.5258,7.5709,mp-9514,2.0032,JVASP-8206,Mg(AlC)2
10.9426,10.9426,8.7085,-8.7506405,-0.242,30.413,100092,65,42.589,1.6979,8.6886,8.6907,6.7574,mp-9574,1.0869,JVASP-8208,NaBeSb
10.472999999999999,9.8205,10.0255,-9.131682199999998,-0.5770000000000001,16.427,100131,60,32.311,1.1585,7.9052,7.1794,7.4096,mp-9580,0.1924,JVASP-8211,TlGaSe2
10.4884,10.0782,10.6344,-10.638203,-0.374,8.18,100292,60,22.7,1.7797,7.5421,7.2414,7.6499,mp-9791,1.0815,JVASP-8214,Tl3AsS3
5.053,5.053,5.053,-16.515716,-1.0070000000000001,6.76,41895,55,19.367,3.0866,3.9137,3.8907,3.9196,mp-9911,2.0417,JVASP-8217,K3SbS4
49.5331,49.5331,49.5331,-7.1102387,1.558,18.08,77225,65,36.533,0.0777,42.9886,42.9904,42.9894,mp-20808,0.0185,JVASP-8448,Nd3PbC
7.5948,6.8954,6.8006,-23.981154,-1.228,16.787,653900,55,30.578000000000003,3.3896,5.0225,4.6488,4.5475,mp-20878,2.2918,JVASP-8454,PbO
5.6454,5.6847,4.9146,-10.279639999999999,-1.27,43.42,55687,45,132.333,0.5934,4.0916,4.1079,3.7647,mp-20930,0.3844,JVASP-8458,InCuO2
2.9467,2.9467,2.9467,-11.506909,-2.6060000000000003,21.38,49591,60,45.333,4.6252,2.2745,2.2745,2.2745,mp-21043,3.4984,JVASP-8464,RbPbF3
17.9098,17.8941,12.8496,-6.3662253,-0.5,17.527,74334,60,32.211,1.5511,11.9365,11.9266,8.6582,mp-22009,0.6903,JVASP-8506,PbSe
10.9295,10.9295,10.2609,-11.066725,-0.638,20.187,44637,60,48.211000000000006,0.9293,5.7731,5.7743,6.4841,mp-22253,0.5177,JVASP-8520,Zn(InS2)2
6.5858,6.5858,6.5858,-31.063531,-2.762,94.4,161702,50,174.533,3.5811,4.9935,4.9935,4.9935,mp-22535,2.5393,JVASP-8537,HfPbO3
14.2559,14.2241,13.9967,-8.3926959,-0.428,22.267,154983,60,55.911,0.6442,8.1147,8.0911,7.9371,mp-22811,0.6206,JVASP-8554,InCuSe2
2.9626,2.9626,2.9626,-2.7655985,-1.787,16.24,43434,50,29.967,7.5038,2.245,2.245,2.245,mp-22851,4.3432,JVASP-8555,NaCl
6.7315,7.3343,6.899,-0.12781213,-0.675,9.127,55193,55,17.078,2.8741,5.4549,5.845,5.5604,mp-22858,2.1897,JVASP-8557,TlI
6.3693,6.3693,6.3693,-0.81356699,-0.892,10.88,61532,50,25.433000000000003,2.833,4.8422,4.8421,4.8421,mp-22875,2.0225,JVASP-8559,TlBr
5.4497,5.4497,5.537000000000001,0.76605056,-0.20199999999999999,4.413,161580,60,30.221999999999998,2.8488,3.8451,3.8459,3.8963,mp-22894,1.2844,JVASP-8561,AgI
4.4177,4.4177,4.4177,-3.0752422999999998,-1.29,14.58,414244,50,22.3,5.3726,3.9389999999999996,3.9389999999999996,3.9389999999999996,mp-22899,4.582,JVASP-8563,LiI
3.6186,3.6186,3.6186,-1.4231159,-1.541,9.7,61555,55,16.267,5.6784,2.9871,2.9871,2.9871,mp-22901,3.6314,JVASP-8564,KI
7.7445,7.7445,7.7445,0.40531290000000003,-0.191,12.46,161581,55,40.266999999999996,2.0786,4.9697,4.9686,4.9682,mp-22919,0.3885,JVASP-8566,AgI
8.8334,8.8334,8.8334,-17.76959,-1.506,95.38,157550,50,182.067,2.2777,6.3754,6.3756,6.3751,mp-22979,1.3525,JVASP-8569,GaBiO3
9.3916,9.3916,9.3916,-1.4978455,-0.10099999999999999,11.007,159858,55,50.411,1.5761,6.1209,6.1208,6.1209,mp-22995,0.6611,JVASP-8571,Ag3SI
5.2869,5.2869,4.8208,-20.325801000000002,-1.986,35.047,24096,50,103.07799999999999,5.0688,3.9152,3.9151,3.5316,mp-23074,3.258,JVASP-8574,BiOF
7.8389,7.8389,7.8389,-24.420134,-2.27,126.0,157549,50,198.9,2.8487,6.3754,6.3756,6.3754,mp-23080,2.0586,JVASP-8575,AlBiO3
4.3085,4.658,4.7376,-24.827898,-1.3780000000000001,10.607000000000001,36231,45,18.878,2.0380000000000003,3.6397,3.8644,3.9199,mp-23097,1.6054,JVASP-8576,K2Os(Cl2O)2
5.6651,5.6651,5.6651,-1.3747156,-1.051,11.7,29107,70,28.4,3.1138,4.4992,4.4992,4.4992,mp-23167,2.2081,JVASP-8578,TlCl
6.6324,5.5026,7.8461,5.2882153,-0.231,5.46,22242,55,10.767000000000001,2.593,4.9309,4.2078,5.5158,mp-23173,1.7445,JVASP-8579,HgI2
7.2609,7.2609,7.2609,-0.046308072,-0.6659999999999999,9.7,53854,55,21.467,2.7173,5.9128,5.9128,5.9129,mp-23197,2.0399,JVASP-8580,TlI
8.3321,8.3321,5.2206,0.38855115,-0.24100000000000002,15.28,30091,60,49.7,1.1372,5.6838,5.6904,4.208,mp-23227,0.2191,JVASP-8582,CuBr
6.1732,6.1732,6.1732,-0.22142638,-0.34700000000000003,10.84,65061,50,46.067,2.5156,4.1779,4.1779,4.1779,mp-23231,1.0021,JVASP-8583,AgBr
2.8666,2.8666,2.8666,-3.0045822,-2.053,15.04,31232,50,24.267,8.5163,2.3608,2.3609,2.3607,mp-23289,5.3479,JVASP-8586,KCl
4.4319999999999995,3.9815,4.2382,-23.607837,-2.376,20.327,40553,55,37.778,4.8299,3.6529,3.3627,3.5301,mp-23293,3.5810000000000004,JVASP-8587,TbCl3
2.9077,2.9077,2.9077,-3.0231058999999996,-2.068,13.74,60401,45,22.3,7.5821,2.4429,2.4431,2.443,mp-23299,5.3357,JVASP-8588,RbCl
4.6215,4.6215,4.6215,-10.125831,-2.384,45.78,24522,45,141.7,5.5209,3.529,3.5291,3.5291,mp-23301,4.2451,JVASP-8589,BiF3
3.5573,3.5573,3.5573,-1.5072176000000002,-1.589,9.42,61523,55,15.3,5.0517,3.0526,3.0525,3.0526,mp-23302,3.7483,JVASP-8590,RbI
3.1454,3.1454,3.1454,-2.3705915,-1.864,11.74,61560,50,19.067,6.2229,2.6281,2.6281,2.6281,mp-23303,4.4097,JVASP-8591,RbBr
5.6141,5.6141,5.6141,-8.0185444,-1.1079999999999999,8.38,49521,55,16.467,2.3931,4.5713,4.5693,4.5805,mp-23383,1.9246,JVASP-8592,Rb2TeBr6
3.4533,3.4533,3.4533,-12.575764999999999,-1.5219999999999998,10.04,6058,55,19.333,3.7046,2.835,2.8341,2.8384,mp-23499,2.1673,JVASP-8594,K2SnCl6
5.6506,5.6506,5.6506,-7.5754572,-1.056,8.02,38346,55,17.067,2.3668,4.504,4.5033,4.5087,mp-23505,1.8937,JVASP-8595,K2TeBr6
5.0467,5.0467,5.0467,-12.471433,-0.141,55.88,158250,55,61.133,3.1115,3.3829,3.3829,3.3829,mp-23729,1.6673,JVASP-8596,NaBeH3
4.2854,4.2854,3.1617,-8.796909900000001,-1.1740000000000002,8.732999999999999,6063,50,15.289000000000001,2.0036,3.7567,3.7568,2.6222,mp-27243,1.6059999999999999,JVASP-8651,K2PtBr4
6.8571,3.5246,5.5868,-9.5626513,-0.9520000000000001,32.033,15115,50,67.822,1.7275,5.7777,2.7557,4.7463,mp-27418,1.1812,JVASP-8655,KAuO2
6.8784,6.8784,6.8784,-3.6259724,-0.902,6.82,22104,60,14.567,0.4894,5.102,5.0997,5.1108,mp-27635,0.2511,JVASP-8659,Rb2SnI6
6.7626,6.9058,6.8135,0.50542912,-0.455,8.892999999999999,26318,55,22.389,2.4325,5.4305,5.5249,5.4634,mp-27801,1.8332,JVASP-8666,TlAgI2
6.0064,6.0463,6.1051,-3.5591421000000003,0.552,7.5,30789,45,10.767000000000001,1.618,5.0525,5.0827,5.1336,mp-27962,0.9408,JVASP-8668,CI4
16.595,13.7202,13.3562,-7.2953853,-0.239,9.167,35471,60,20.311,1.2528,12.0207,10.1788,9.8408,mp-28051,0.8908,JVASP-8670,SbTeI
5.0509,5.6915,6.1771,-11.826852,-0.282,8.087,66013,55,15.978,2.3845,3.702,3.9895,4.4253,mp-28722,1.7122,JVASP-8675,Pt(SCl3)2
6.7482,6.7482,7.2786,-14.422388,0.345,51.22,85782,55,93.9,2.0266,4.3299,4.3299,5.9147,mp-29196,1.0897,JVASP-8682,AuCN
3.9212,3.9488,3.888,-10.503304,-0.321,12.28,76434,50,26.8,5.2054,3.1012,3.1211,3.0771,mp-29738,4.6064,JVASP-8688,TlClO3
4.9211,4.9211,3.9287,-28.339461,0.25,38.626999999999995,88057,45,85.311,3.3948,4.3104,4.3104,3.4606,mp-29771,2.7497,JVASP-8690,MgC2
5.2471,5.2471,8.916,-16.869449,0.16899999999999998,45.407,411253,60,82.444,2.1041,4.1069,4.1071,7.1541,mp-29868,1.6624,JVASP-8693,LiAuC2
3.0601,3.0604,3.0775,-7.3036649,-1.685,9.82,51168,50,23.833000000000002,5.0716,2.4234,2.4236,2.4332,mp-29873,3.2076,JVASP-8694,Rb2CdCl4
4.7415,4.7415,4.7711,-19.203604000000002,-0.22699999999999998,28.073,92313,55,67.02199999999999,3.2430000000000003,4.7561,4.7555,4.8451,mp-29929,2.9962,JVASP-8695,NaLi5N2
3.0275,3.7781,5.2402,1.944439,-0.128,13.513,279623,40,21.256,4.1532,2.3596,2.8414,3.7805,mp-30009,2.7137,JVASP-8698,KrF2
5.5693,5.5084,5.5433,-59.20936999999999,-0.183,424.49300000000005,93040,50,378.82199999999995,3.3121,5.0301,4.9924,5.0147,mp-30148,2.458,JVASP-8703,BC2N
6.2382,5.4113,5.5633,-37.256718,-1.349,14.127,94740,50,83.77799999999999,2.7527,4.5341,4.1281,4.0926,mp-30200,1.2309999999999999,JVASP-8704,Bi2CO5
6.0509,6.0509,5.3182,-41.281007,-2.445,38.333,95675,55,125.456,3.7211,4.4727,4.473,4.1756,mp-30251,2.7637,JVASP-8706,YAuO2
7.0789,7.3089,7.8341,-45.516373,-1.125,46.54,2785,50,121.53299999999999,1.8242,6.2777,6.4576,6.8562,mp-30521,1.2789,JVASP-8718,ThCN
3.0286,3.0389999999999997,3.3297,-17.06496,-0.731,16.413,22,50,31.289,3.9761,2.3767,2.3815,2.5971,mp-30965,2.5540000000000003,JVASP-8733,NaClO2
6.4785,5.8826,5.992999999999999,-51.895441,-2.2680000000000002,41.733000000000004,413442,45,53.089,1.5663,5.4451,5.0058,4.8884,mp-31256,1.4219,JVASP-8744,U(SbO3)2
3.3389,3.375,2.4165,-16.927068,-0.787,11.587,59935,50,26.611,3.5739,2.7319999999999998,2.7556,2.0241,mp-31368,2.226,JVASP-8748,KClO2
34.5219,34.5219,34.5219,-14.496982000000001,-0.187,44.26,107124,50,161.86700000000002,0.259,36.2739,36.2739,36.2739,mp-31455,0.2103,JVASP-8750,VSbRu
1.9826,1.983,1.9809,-33.350256,-3.759,74.627,38305,45,54.911,11.0135,1.6843,1.6845,1.6834,mp-468,8.2402,JVASP-20310,AlF3
2.1094,2.1094,2.1094,-14.712681,-3.5380000000000003,51.12,94089,45,78.0,10.6421,1.7739,1.7738,1.7739,mp-3448,7.6813,JVASP-20882,KMgF3
2.0269,2.0269,2.0269,-31.754222,-3.4130000000000003,33.54,6027,45,53.7,10.8949,1.6968,1.6971,1.6958,mp-6586,7.4898,JVASP-21387,K2NaAlF6
1.9119,1.9119,1.9374,-26.299282,-3.4419999999999997,20.94,81864,70,34.933,11.4243,1.6106,1.6106,1.6161,mp-9486,6.6160000000000005,JVASP-22421,K2AlF5
3.0269999999999997,3.0269999999999997,3.0148,-319.59336,-3.266,114.32,31256,50,192.933,7.1845,2.5478,2.5478,2.5409,mp-17313,5.6844,JVASP-22885,Mg3BeAl8O16
2.8478,2.8478,2.8739999999999997,-156.97593999999998,-2.603,46.167,19028,50,80.111,5.8982,2.326,2.3263,2.3228,mp-17382,4.1339999999999995,JVASP-22894,Rb2Si3SnO9
2.9972,3.0772,3.0191,-113.95273,-2.685,30.093000000000004,73116,45,48.122,2.5836,2.5526,2.6173,2.5724,mp-17446,2.4671,JVASP-22907,PrPtF7
4.2889,4.2889,3.9744,-177.14992,-3.09,82.86,65301,55,156.067,5.6716,3.4118,3.4118,3.2235,mp-17481,4.2638,JVASP-22919,Mg4Ta2O9
4.6191,4.6429,4.7196,-233.9484,-3.701,68.833,34692,50,142.922,3.5826,4.1139,4.1417,4.2084,mp-17559,3.2991,JVASP-22929,Y2TiO5
3.0474,3.1173,3.0668,-113.59558999999999,-2.699,33.573,73117,50,53.422,2.6017,2.6045,2.6662,2.6255,mp-17569,2.4261,JVASP-22934,SmPtF7
6.4157,5.2577,6.222,-52.692211,-0.92,8.467,404081,65,15.844000000000001,2.2422,4.5602,3.9871,4.4302,mp-17638,1.2414,JVASP-22941,Rb3SbSe4
3.0967,3.1534,3.1181,-113.4467,-2.715,37.513000000000005,73121,50,59.788999999999994,2.5542,2.6415,2.6939,2.6654,mp-17651,2.3621,JVASP-22945,HoPtF7
2.4991,2.4651,2.4864,-94.138123,-3.924,32.967,20051,45,69.678,9.3509,2.0813,2.0542,2.0717,mp-17697,7.5503,JVASP-22958,KSmF4
1.8738,1.8759,1.8753,-72.895134,-3.513,43.633,33514,40,68.789,11.15,1.5482,1.5466,1.5474,mp-19931,7.0655,JVASP-23351,Na2MgAlF7
12.3418,12.3418,9.1382,-25.759005,-0.589,20.192999999999998,155044,65,97.456,0.0143,5.7170000000000005,5.7174,6.5993,mp-22286,0.0067,JVASP-23764,Ag5(PbO3)2
2.5379,2.5379,2.5833,-53.874724,-1.989,25.186999999999998,27658,45,39.510999999999996,8.7022,2.1106,2.1108,2.1238,mp-22457,5.9255,JVASP-23802,K3Na(SO4)2
2.7295,2.7295,2.7295,-3.0641702,-1.9369999999999998,17.8,240598,45,27.666999999999998,8.2417,2.2352,2.235,2.2354,mp-22862,5.3211,JVASP-23862,NaCl
2.6563,2.6614,2.6059,-30.732670000000002,-0.557,16.72,200405,45,27.8,8.1367,2.1843,2.1875,2.1542,mp-22968,5.9254,JVASP-23867,NaClO4
3.1377,3.1377,3.0917,-19.936134,-3.455,21.406999999999996,35487,50,48.044,7.233,2.676,2.676,2.6753,mp-23432,5.4152,JVASP-23920,BaClF
4.4638,4.7249,4.4545,-60.491291000000004,-1.7280000000000002,35.76,37084,55,65.967,2.6827,3.3807,3.5534,3.3985,mp-559106,1.5556,JVASP-24241,KLi3PbO4
4.8509,4.3019,4.2331,-145.67376000000002,-2.3930000000000002,33.573,154105,55,59.422,4.582,3.786,3.4973,3.4302,mp-559186,3.4579,JVASP-24259,BaBiBO4
4.3372,4.2917,4.4705,-174.11785,-2.237,11.667,48213,45,27.011,3.9477,3.6433,3.6218,3.7680000000000002,mp-559198,3.3491,JVASP-24261,Rb2Mo3O10
7.7565,8.0449,6.995,-64.450677,-0.726,15.333,281167,60,24.789,2.5028,6.0128,6.2961,5.5858,mp-559227,1.7724,JVASP-24267,RbGeBiS4
6.7034,6.7032,6.8899,-114.51558,-1.605,23.813000000000002,411997,50,56.156000000000006,3.4336,5.8224,5.8746,5.9726,mp-559237,2.6835,JVASP-24270,Nd3Si2S8Br
5.1715,4.9996,5.0208,-86.414985,-3.1889999999999996,65.28699999999999,108807,55,142.444,4.2273,4.2684,4.1614,4.2169,mp-559243,3.177,JVASP-24272,Nd2Ta2Cl2O7
2.5639999999999996,2.5639999999999996,2.5639999999999996,-198.53843,-2.3680000000000003,23.72,65664,50,55.133,6.8222,1.9266,1.9266,1.9266,mp-559286,4.1708,JVASP-24285,Na4Al3Ge3ClO12
6.2053,6.2053,6.2053,-79.266087,-1.9709999999999999,59.48,77640,55,96.93299999999999,1.0221,4.9449,4.9453,4.9448,mp-559352,0.4303,JVASP-24299,Ba4Na(BiO4)3
3.656,3.5747,3.9413,-34.31013,-1.281,13.573,4076,50,17.822,4.8998,2.6219,2.5227,2.7911,mp-559377,3.4394,JVASP-24305,IOF3
3.7817,3.7817,3.7385,-202.50976,-3.1039999999999996,24.413,240872,50,55.356,5.1701,3.1577,3.1585,3.1279,mp-559378,3.3560000000000003,JVASP-24306,Ba5Ta2Cl2O9
2.5134,2.5238,2.5399,-213.80674,-1.3230000000000002,9.32,419835,50,42.067,6.5853,1.9968,2.0001,2.0162,mp-559463,4.3987,JVASP-24326,RbMgAs(H6O5)2
6.1703,6.1703,6.4677,-96.326797,-2.2430000000000003,23.026999999999997,92443,55,64.311,3.8053,5.2189,5.2187,5.2996,mp-559514,3.0762,JVASP-24333,Nd4S3NCl3
5.0305,5.4457,5.3942,-91.658861,-3.432,78.867,109192,45,183.34400000000002,5.065,4.0449,4.3324,4.3077,mp-558781,4.0686,JVASP-24417,ScTaO4
4.6469,4.6469,2.0001,3.9660683,-0.115,7.067,23534,45,16.644000000000002,4.0063,3.3139,3.3139,1.6685,mp-558928,2.4244,JVASP-24447,KrF2
2.6289999999999996,2.6366,2.6423,-98.779575,-2.508,25.5,15725,45,30.933000000000003,8.4333,2.1472,2.1527,2.1566,mp-558990,5.9415,JVASP-24465,K2Sr(PO3)4
3.455,3.2536,2.7001,-48.950101000000004,-1.598,11.88,60080,45,19.533,2.2474,2.9612,2.9166,2.375,mp-557856,2.0936,JVASP-24912,BCl(OF2)2
7.9154,8.4571,8.818,-44.104227,-1.137,48.913000000000004,79500,50,94.056,1.4463,6.2395,6.555,7.0382,mp-557993,0.9704,JVASP-24934,BiO2
3.9879,3.5297,4.2309,-84.403403,-2.042,38.327,159880,45,65.311,6.0164,3.1357,2.8259,3.3018,mp-557997,4.3574,JVASP-24935,CaSeO3
8.6834,8.6834,8.4465,-85.081896,-1.577,30.193,155940,55,65.48899999999999,2.147,7.4981,7.504,7.2376,mp-558042,1.6005,JVASP-24944,Sm3CuSnS7
2.5537,2.5124,2.5158,-55.636777,-2.7889999999999997,14.72,241228,45,30.866999999999997,6.4104,2.0032,1.9628,1.9647,mp-558309,4.0266,JVASP-25015,K4SnSb2F14
4.1466,4.1466,4.0428,-97.647429,-2.821,39.56,420039,55,81.867,4.4282,3.4359,3.4359,3.319,mp-558317,3.4317,JVASP-25017,KNaPrNbO5
3.5733,3.7306,3.8066,-28.086909999999996,-1.4069999999999998,16.06,40376,55,25.666999999999998,3.3661,2.9648,3.0943,3.14,mp-558332,2.2374,JVASP-25021,K5Au(IO)2
4.6045,4.5325,4.5619,-103.3298,-3.002,44.927,419317,45,102.57799999999999,4.7153,3.658,3.5796,3.6084,mp-558340,3.3369999999999997,JVASP-25022,Nd5As2ClO10
3.8184,3.8184,3.7916,-134.69783,-1.6980000000000002,61.393,163603,50,96.42200000000001,6.5904,3.2026,3.2032,3.2004,mp-557650,4.7238,JVASP-25581,Sr3P6(N4O3)2
8.4182,7.5344,8.5221,-86.093952,-2.055,32.953,418061,50,55.256,1.3021,6.6847,6.1434,6.6773,mp-557685,0.7991,JVASP-25591,NbIO2
3.2466,3.2144,3.2579,-69.517714,-1.624,28.36,202073,50,55.033,4.0643,2.5618,2.6074,2.5952,mp-557698,2.4697,JVASP-25596,K4Na2TeO6
9.2359,8.5008,9.0317,-28.049182000000002,-0.441,19.16,75430,50,44.9,1.5634,7.7596,7.0132,7.5678,mp-557728,1.3356,JVASP-25601,KCu4AsS4
2.5834,2.5564,2.5674,-127.8911,-2.36,21.56,158801,50,43.766999999999996,7.5169,2.1622,2.1653,2.1607,mp-557753,4.324,JVASP-25609,K3PO4
9.0639,9.0112,8.7345,-40.103532,-1.4380000000000002,18.447,410747,55,28.544,1.5338,6.996,6.968999999999999,6.8291,mp-557761,1.0698,JVASP-25611,KBa4Sb3O
4.6421,4.6421,4.4324,-153.5885,-2.645,69.067,417711,50,158.811,3.8019,4.1339999999999995,4.1339,3.9713,mp-557773,2.9033,JVASP-25615,Sc2TeO6
3.1241,3.2436,3.1621,-59.085138,-1.886,15.953,94532,50,26.555999999999997,5.4254,2.3582,2.4249,2.3791,mp-557399,3.897,JVASP-25619,KSnSO4F
4.2738,4.2285,4.2410000000000005,-106.01444,-1.452,106.26,415272,50,171.467,5.3852,3.6105,3.555,3.5559,mp-557414,4.2624,JVASP-25626,BaSi6N8O
3.4809,2.5315,3.5001,-78.98151,-1.4609999999999999,13.187000000000001,60108,45,29.778000000000002,2.2324,2.8804,2.0797,2.8149,mp-557432,1.9652,JVASP-25630,GeClO2F5
7.8176,7.64,7.9652,-57.525009999999995,-0.586,12.873,409686,50,24.089000000000002,2.8559,6.2664,6.2102,6.3834,mp-557437,2.1717,JVASP-25632,KBi(PS3)2
4.6329,5.5186,5.8735,-45.670971,-0.53,19.1,417267,45,25.733,2.4516,3.6205,4.2622,4.4824,mp-557441,2.213,JVASP-25633,KAu(IO3)4
4.5737,4.6647,4.5874,-119.91458,-3.4,44.593,246110,50,102.689,2.4414,4.2085,4.3054,4.2331,mp-557448,2.3116,JVASP-25634,Ba2CaUO6
25.9955,25.9665,26.024,-96.0801,-2.54,55.7,109297,60,104.4,2.1698,38.3723,37.9485,38.0607,mp-557481,2.1246,JVASP-25645,Sr4RhO6
3.3802,3.3802,3.2784,-19.666363,-3.6489999999999996,44.233000000000004,35390,50,73.48899999999999,7.8853,2.8127,2.8127,2.7466,mp-557483,6.0354,JVASP-25647,YbClF
8.6647,8.6647,8.3327,-85.503344,-1.585,37.233000000000004,155078,60,72.789,2.3856,7.0031,7.0026,6.6908,mp-557517,1.7365,JVASP-25653,Tb3CuGeS7
2.8228,2.9144,2.8005,-59.006627,-1.505,6.56,415863,50,11.133,6.3979,2.3724,2.4027,2.3583,mp-557522,5.0547,JVASP-25655,PCl2OF
3.8575,3.9452,3.8633,-64.884077,-1.8719999999999999,22.3,69607,45,72.4,5.4948,3.0097,3.042,3.0226,mp-557531,4.0345,JVASP-25656,Pb2S(O2F)2
4.4341,4.4341,4.4341,-114.63094,-0.597,86.98,417324,50,158.86700000000002,5.0235,3.5273,3.5283,3.5272,mp-557537,3.05,JVASP-25658,Zn4P6N12O
2.8061,2.8061,2.8253,-133.54943,-2.915,55.073,412528,55,102.589,7.0073,2.2808,2.2809,2.2699,mp-557543,3.5258,JVASP-25662,K3LuSi2O7
2.5413,2.5217,2.7136,-52.763341000000004,-3.2960000000000003,28.773000000000003,9926,45,69.956,6.7599,2.1463,2.1595,2.182,mp-557552,4.085,JVASP-25664,Sr2CuF6
3.0007,3.0007,2.9987,-135.64618000000002,-2.866,58.24,413432,55,104.667,5.1922,2.576,2.5752,2.5805,mp-557577,3.5473,JVASP-25667,K3ScSi2O7
5.0601,4.7495,4.772,-63.955024,-1.35,29.02,154151,50,98.23299999999999,3.6242,3.5253,3.3852,3.3707,mp-556653,1.9699,JVASP-25775,Cd2BiAsO6
8.0307,8.5225,7.879,-119.65848999999999,-0.375,12.353,249460,50,26.756,2.7829,6.2186,6.4886,6.1497,mp-556665,2.2065,JVASP-25779,TlBiP2S7
31.1131,31.1131,42.331,-155.45243,-2.3819999999999997,56.867,55052,55,131.378,0.0301,39.7935,39.8328,28.2614,mp-556674,0.0128,JVASP-25781,Ba3LuIr2O9
3.0687,3.0702,2.9467,-121.79175,-2.759,42.847,172420,45,80.111,6.4518,2.5252,2.5365,2.4529,mp-556695,4.1925,JVASP-25786,NaSrBO3
2.5382,2.5695,2.5788,-115.1583,-1.952,22.68,155976,45,38.433,8.7027,1.9513,1.9652,1.9777,mp-556699,5.9937,JVASP-25787,Na2PHO3