epsx,epsy,epsz,fin_en,form_enp,gv,icsd,kp_leng,kv,mbj_gap,mepsx,mepsy,mepsz,mpid,op_gap,jid,formula
2.8654,2.8762,2.8836,-53.938095,-1.87,30.82,62595,45,57.867,5.9719,2.0012,2.0085,2.0122,mp-2970,3.02,JVASP-9373,Na4GeO4
6.1436,6.0666,5.9961,-55.264177000000004,-0.282,97.32,155463,55,168.13299999999998,2.9133,4.7136,4.6160000000000005,4.5963,mp-2979,1.8656,JVASP-9374,ZnGeN2
7.845,7.845,9.2443,-38.810315,-0.324,10.12,35361,50,17.8,1.5731,6.7793,6.7793,7.3865,mp-3006,1.5366,JVASP-9375,P2Pd3S8
3.8829,4.6607,4.5432,-17.798374,-0.945,15.493,40154,50,33.756,2.5507,3.0214,3.5146,3.4401,mp-3074,1.6277,JVASP-9380,KAgO
3.4341,3.4462,3.4282,-47.834203,-2.1069999999999998,62.02,162060,50,160.333,5.5622,2.5797,2.5831,2.5781,mp-3107,3.426,JVASP-9381,Ga3PO7
2.2767,2.2768,2.28,-23.965516,-2.7739999999999996,27.046999999999997,100299,45,60.843999999999994,6.9803,1.8453,1.8454,1.8502,mp-3125,4.4811,JVASP-9382,K3Zn2F7
4.806,5.2182,4.6903,-89.286925,-3.448,70.1,415430,45,155.9,5.2582,3.9176,4.1372,3.82,mp-3203,4.0085,JVASP-9388,NdTaO4
3.6255,3.8214,2.8493,-56.857693999999995,-2.273,13.073,161621,50,92.62200000000001,6.1464,3.0416,3.1845,2.536,mp-3205,4.3802,JVASP-9389,CaCO3
3.8127,3.9752,4.3884,-38.293541999999995,-1.05,21.133000000000003,100316,50,72.48899999999999,3.4173,2.7229,2.8026,2.9098,mp-3228,1.4907,JVASP-9390,HgSO4
7.5893,7.5893,7.5893,-59.385227,-1.47,54.64,109299,50,178.86700000000002,1.4215,6.7974,6.7974,6.7974,mp-3319,1.3232,JVASP-9398,Mg(RhO2)2
7.1222,7.2795,7.5383,-113.5067,-2.48,55.893,163815,50,107.22200000000001,2.0911,5.7935,5.9746,5.8295,mp-3324,1.8442,JVASP-9399,Nb2SnO6
2.6348,2.6787,2.4824,-42.036438000000004,-2.795,16.627,39630,45,28.178,6.8375,2.0574,2.0818,1.9384,mp-3379,4.9609,JVASP-9403,K2SbF5
4.0084,3.9833,3.6475,-41.886009,-2.044,32.2,240888,50,60.3,5.0513,3.2183,3.1583,2.9478,mp-3395,3.7510000000000003,JVASP-9404,SrSeO3
2.6914,2.7213,2.8971,-19.528223999999998,-1.875,8.173,33952,40,25.721999999999998,2.5829,2.256,2.2888,2.4836,mp-3419,2.4963,JVASP-9406,RbAuF4
6.4654,6.4626,6.4597,-62.261033,-3.3989999999999996,110.65299999999999,162923,50,182.822,2.8175,5.3916,5.3943,5.3971,mp-3442,2.3087,JVASP-9409,CaTiO3
4.5445,4.5445,4.5445,-43.28666,-1.787,62.08,159739,55,164.467,3.5113,3.221,3.221,3.221,mp-3443,1.8136,JVASP-9410,Cd(GaO2)2
4.8364,5.2284,4.7505,-89.49861899999999,-3.5269999999999997,76.747,415437,45,161.54399999999998,5.3319,3.8805,4.1492,3.8395,mp-3444,4.0592,JVASP-9411,ErTaO4
4.2291,4.2291,4.6277,-79.26141899999999,-1.9140000000000001,107.16,108963,55,172.533,2.1842,3.3571,3.3571,3.6935,mp-3653,1.2331,JVASP-9425,Mg(SbO3)2
3.9923,3.9321,4.0067,-71.064161,-2.2430000000000003,58.027,151585,50,133.111,4.3508,3.0724,3.0309,3.0376,mp-3707,2.6178,JVASP-9432,CaGe2O5
4.3425,4.3594,4.3767,-68.98995500000001,-3.665,102.42,161598,50,164.233,5.7170000000000005,3.5905,3.6029,3.6154,mp-3721,4.1711,JVASP-9433,SrHfO3
5.1114,4.7565,4.8407,-89.255351,-3.47,72.253,153360,45,154.722,5.313,4.0382,3.8317,3.9112,mp-3756,4.0472,JVASP-9436,SmTaO4
12.4634,10.0558,4.0294,-54.44398,-3.295,23.28,100028,50,51.0,5.6657,17.7424,18.0092,4.6884,mp-3879,4.2903,JVASP-9443,Ba2CuF6
5.5477,5.1527,5.1497,-83.96248800000001,-3.2760000000000002,57.107,100836,45,133.078,4.2334,4.5853,4.295,4.2961,mp-3901,3.5243,JVASP-9445,NdNbO4
3.471,3.471,3.471,-59.13600699999999,-2.562,102.98,161258,50,164.933,5.2151,2.7022,2.7022,2.7022,mp-3904,3.2819,JVASP-9446,Mg2GeO4
11.1472,11.0015,12.9843,-31.251384,-0.256,12.453,94647,55,33.256,1.7199,8.6548,8.6031,9.8496,mp-3922,1.2459,JVASP-9447,AgSbS2
4.2689,4.2491,4.2872,-57.712586,-1.097,92.74,50224,50,157.6,5.1476,3.5349,3.4874,3.5146,mp-3933,4.0472,JVASP-9449,Mg2PN3
3.0644,3.1224,2.608,-58.245922,-2.412,38.527,158472,45,86.911,6.9049,2.5254,2.5587,2.263,mp-3953,5.1687,JVASP-9573,CaCO3
4.2192,4.1691,4.4644,-70.068381,-2.971,64.307,94897,45,120.944,4.9819,3.5879,3.5481,3.7243,mp-4156,4.0349,JVASP-9581,Li2ZrO3
9.8202,8.2557,8.7825,-101.5916,-2.129,137.887,98662,50,279.978,3.0375,7.2385,6.3363,6.7386,mp-4165,2.0082,JVASP-9582,TaNO
4.5132,4.2964,4.16,-43.84212,-0.5720000000000001,62.547,200849,50,76.678,4.3293,3.4315,3.2471,3.1138,mp-4187,2.701,JVASP-9583,Ge2N2O
3.7668,3.969,3.8276,-77.355571,-3.07,94.26700000000001,201132,45,172.144,4.861000000000001,3.6213,3.8471,3.6894,mp-4200,4.5868,JVASP-9586,ScPO4
5.1687,4.7634,4.8634,-89.492673,-3.52,78.66,153363,45,167.767,5.3012,4.098,3.8439,3.9079,mp-4344,4.0643,JVASP-9594,HoTaO4
3.6151,3.6965,3.0203,-44.526128,-1.4280000000000002,37.54,156755,45,107.73299999999999,5.1879,2.6618,2.7089999999999996,2.3166,mp-4385,2.9861,JVASP-9596,CdCO3
6.649,6.649,6.5595,-58.04537,-2.605,109.06700000000001,280100,60,143.144,2.309,5.4028,5.4028,5.3448,mp-4419,1.6559,JVASP-9598,NaNbO3
9.4305,9.1736,9.5427,-20.897202,-0.133,3.347,61806,60,32.711,1.8911,6.6744,6.519,6.7421,mp-4431,1.0559,JVASP-9599,Ag3AsS3
4.7863,4.7863,5.3475,-42.881536,-0.469,10.52,50326,45,26.933000000000003,2.4296,3.7455,3.7451,4.2228,mp-4453,1.4998,JVASP-9600,TlNO2
3.6761,3.7051,3.5011,-39.189375,-1.754,43.993,78011,50,90.62200000000001,4.1768,2.8705,2.8873,2.7688,mp-4482,2.7628,JVASP-9602,NaSbO3
5.8449,5.9057,5.5918,-58.196822,-2.62,55.66,28152,50,116.43299999999999,3.2969999999999997,4.8698,4.9244,4.6422,mp-4514,2.7552,JVASP-9604,NaNbO3
3.3139999999999996,3.3034,3.3691,-58.23342099999999,-2.07,67.393,28131,45,97.62200000000001,5.6512,2.8849,2.8835,2.8924,mp-4527,4.1147,JVASP-9606,Li8SnO6
3.8559,3.9379,4.1074,-51.436324,-1.9680000000000002,44.273,50531,50,127.456,3.477,2.8238,2.8531,2.9268,mp-4530,1.6869,JVASP-9607,Cd2SiO4
3.0857,3.2039999999999997,2.2186,-41.080246,-0.9990000000000001,19.113,420041,45,35.389,4.5122,2.4941,2.5827,1.8439,mp-4531,3.0296,JVASP-9608,NaNO3
2.4722,2.5057,2.5202,-53.955534,-2.511,37.7,74640,45,66.667,7.0127,1.9577,1.9736,1.9884,mp-4533,4.1469,JVASP-9609,Na2SiO3
3.2352,2.2091,2.5756,-80.15899999999999,-1.635,21.493000000000002,171459,45,46.821999999999996,4.788,2.5333,1.8444,2.1012,mp-4534,3.3296,JVASP-9610,NaCO2
3.1394,3.1296,3.0968,-74.24239399999999,-2.171,51.58,65177,50,87.56700000000001,6.3176,2.5837,2.5804,2.5776,mp-4558,4.2931,JVASP-9612,Li4GeO4
3.7334,3.7334,3.7334,-53.610923,-2.325,85.64,157769,50,171.233,5.2884,2.8621,2.8621,2.8621,mp-4590,3.4099,JVASP-9615,Mg(GaO2)2
5.2146,5.3245,5.2479,-90.22570400000001,-2.897,174.187,402404,45,289.978,4.6558,4.2122,4.3518,4.2546,mp-4624,3.5443,JVASP-9616,TaBO4
4.1202,3.5505,4.0125,-73.810338,-3.9939999999999998,70.16,100564,45,150.6,5.5033,3.4782,3.0446,3.4127,mp-4661,4.4462,JVASP-9621,ScOF
5.2829999999999995,5.2829999999999995,5.25,-63.847939000000004,-2.86,121.56700000000001,88377,55,153.778,3.6695,3.9364,3.9364,3.92,mp-4675,2.3528,JVASP-9659,NaTaO3
3.1663,3.2993,3.2897,-50.257121999999995,-1.6130000000000002,20.352999999999998,73104,45,41.321999999999996,4.5973,2.6303,2.736,2.7286,mp-4690,3.2321,JVASP-9674,K3TaO8
5.0869,4.4515,5.042,-43.645231,-0.816,22.386999999999997,281040,45,79.378,1.7944,3.3774,3.017,3.3476,mp-4691,0.1972,JVASP-9675,Ag2CO3
5.5047,5.1313,5.1137,-83.923764,-3.261,54.18,109302,40,127.56700000000001,4.3089,4.5377,4.2727,4.2598,mp-4709,3.6203,JVASP-9677,PrNbO4
6.176,5.8801,5.9425,-131.88948,-3.557,74.92,201890,50,178.333,3.5156,5.5498,5.3499,5.4187,mp-4733,3.1428,JVASP-9679,ThTi2O6
4.1457,4.0829,4.0102,-62.644591000000005,-2.7289999999999996,68.54,173626,50,125.9,4.6613,3.2546,3.2218,3.1621,mp-4747,2.8916,JVASP-9680,Ca2SnO4
2.4716,2.4579,2.436,-53.755131000000006,-1.9180000000000001,26.147,81506,45,48.511,8.7096,1.9498,1.9396,1.9266,mp-4770,5.436,JVASP-9682,Na2SO4
8.2127,6.7204,8.0078,-43.247378000000005,-1.818,79.98,160328,50,162.7,1.4503,7.1194,5.7307,7.1697,mp-4784,1.3585,JVASP-9683,CaPtO3
3.8986,4.0231,3.9401,-72.374998,-2.966,65.54,156945,50,163.333,4.8762,3.3128,3.3682,3.3313,mp-4790,4.0126,JVASP-9684,ThGeO4
4.0936,4.2,4.1293,-85.641522,-3.347,110.98700000000001,158108,45,218.34400000000002,5.1919,3.5941,3.6722,3.6204,mp-4820,4.7008,JVASP-9686,ZrSiO4
4.0877,4.5237,4.6747,-103.47435,-3.263,100.40700000000001,24133,45,194.644,3.4565,3.4514,3.8348,3.9930000000000003,mp-4930,2.9319,JVASP-9692,TiAl2O5
7.7265,7.1129999999999995,7.3031,-21.996492,-0.608,17.267,402081,55,28.811,2.6171,5.3172,4.8578,5.0059,mp-5122,1.4772,JVASP-9698,Na3AlP2
5.4918,6.0282,5.9745,-30.544790999999996,-1.3559999999999999,35.813,49755,50,78.85600000000001,1.7333,5.0862,5.3248,5.3017,mp-5127,1.5951,JVASP-9699,LiCuO
18.8158,18.8158,18.8158,-56.601732,-0.39799999999999996,43.8,82721,55,77.3,0.5655,15.3423,15.3337,15.3367,mp-5222,0.187,JVASP-9705,ReTeS
4.4906,3.7833,5.1175,-69.317826,-0.812,27.993000000000002,109603,45,69.689,2.6926,3.0869,2.7752,3.5,mp-5282,2.2747,JVASP-9707,AgCO2
2.7551,2.7880000000000003,2.9696,-19.684566,-1.886,10.793,10327,45,28.656,2.5306,2.2502,2.283,2.4641,mp-5309,2.3451,JVASP-9709,KAuF4
3.8358,4.1294,4.074,-45.730205,-2.551,41.907,68360,45,63.244,2.3776,3.2688,3.5496,3.4968,mp-5327,2.2396,JVASP-9710,Na4UO5
3.1191,3.1914,2.6127,-54.99118299999999,-2.1959999999999997,73.92699999999999,156763,40,118.07799999999999,7.1473,2.5376,2.5861,2.1983,mp-5348,5.2235,JVASP-9711,MgCO3
3.1598,3.2744,3.2617,-50.127987,-1.605,17.7,150280,45,37.533,4.4985,2.6501,2.7425,2.7324,mp-5461,3.2597,JVASP-9717,Rb3TaO8
7.796,7.657,7.9255,-24.094049,-0.187,10.207,653748,45,27.111,1.8336,6.3697,6.2492,6.3556,mp-5470,1.3543,JVASP-9718,AgPS3
5.1745,4.761,4.8626,-89.44986899999999,-3.523,79.85300000000001,153365,45,168.25599999999997,5.303999999999999,4.1007,3.8407,3.9058,mp-5503,4.0649,JVASP-9721,ErTaO4
3.44,3.7083,3.674,-74.666191,-3.358,76.967,16214,45,166.71099999999998,5.2679,2.8560000000000003,3.0602,3.0337,mp-5594,4.325,JVASP-9725,Sc2Si2O7
3.0301,3.0301,3.0301,-71.536913,-3.005,122.4,162406,50,181.9,6.8501,2.5267,2.5267,2.5267,mp-5639,5.3256,JVASP-9730,Mg2SiO4
3.1301,3.3345,3.3163,-76.322737,-3.435,66.64,281313,45,145.167,6.4947,2.64,2.7685,2.7575,mp-5652,4.9842,JVASP-9731,Y2Si2O7
3.2229,3.2577,3.2498,-42.723855,-1.426,29.213,100317,50,74.389,5.8762,2.4307,2.4493,2.4228,mp-5679,3.3641,JVASP-9732,CdSO4
10.0483,9.2789,10.0324,-49.54574,-1.51,43.32,415490,55,85.8,1.5822,9.2154,8.7111,9.2808,mp-5737,1.2627,JVASP-9735,TbCuS2
7.4533,7.069,8.466000000000001,-100.89161,-2.0709999999999997,80.993,173007,55,227.389,3.2383,5.5683,5.4755,6.3393,mp-5813,2.2558,JVASP-9740,TaNO
4.5129,4.529,4.4493,-63.700584,-3.56,124.573,249018,50,197.68900000000002,5.3719,3.8547,3.8704,3.7926,mp-5899,4.3699,JVASP-9745,NdAlO3
7.4685,8.3667,6.9411,-39.624871,-0.6890000000000001,12.392999999999999,655219,65,22.989,2.0967,5.2727,5.9378,4.9844,mp-5942,1.2713,JVASP-9747,NaAsS2
4.843999999999999,5.2337,4.7469,-89.545456,-3.5239999999999996,76.14699999999999,415436,45,162.678,5.3241,3.8883,4.1538,3.8392,mp-5985,4.0541,JVASP-9750,HoTaO4
10.0806,10.0806,8.7133,-24.041933,-0.365,16.487000000000002,300252,60,36.144,1.714,7.1007,7.1561,6.6001,mp-6023,0.9636,JVASP-9754,Tl2Sn(AsS3)2
2.8195,2.8776,2.3926,-54.503595,-2.02,46.74,100482,45,78.3,6.7956,2.2545,2.2923,1.9766,mp-6026,4.5782,JVASP-9755,Na2Mg(CO3)2
4.31,4.31,4.31,-51.274551,-2.85,78.46,153139,50,134.067,5.0592,3.6889,3.6889,3.6888,mp-6037,3.8932,JVASP-9756,Ba2SmSbO6
3.9399,3.9399,3.9399,-52.50544,-2.8739999999999997,77.5,157887,50,140.567,5.3183,3.3922,3.3926,3.3925,mp-6110,3.9605,JVASP-9762,Sr2YSbO6
3.465,3.465,3.7182,-97.200876,-2.798,55.913000000000004,20205,50,101.48899999999999,3.6733,2.8305,2.8305,3.0971,mp-6138,3.0323,JVASP-9766,Na2TiSiO5
4.2899,4.2899,4.2899,-51.705628000000004,-2.909,86.64,150863,50,138.9,4.7815,3.5953,3.5953,3.5953,mp-6192,3.7224,JVASP-9771,Ba2DySbO6
4.2789,4.2789,4.2789,-51.831471,-2.928,89.06,245459,50,141.833,4.6965,3.5908,3.5907,3.5907,mp-6231,3.6252,JVASP-9774,Ba2ErSbO6
5.0912,5.1008,5.1106,-60.823316000000005,-3.301,56.493,245455,50,140.322,3.7525,4.2934,4.3017,4.3091,mp-6254,3.0557,JVASP-9776,Ba2TbNbO6
4.763,4.7634,4.8571,-77.81260999999999,-3.032,89.66,246278,50,139.067,2.5402,4.5156,4.5039,4.446000000000001,mp-6259,2.2102,JVASP-9777,SrLi2Ta2O7
4.2984,4.2984,4.2984,-51.628745,-2.8989999999999996,85.48,246164,50,139.067,4.8228,3.6024,3.6024,3.6024,mp-6265,3.772,JVASP-9778,Ba2TbSbO6
4.8938,4.8938,4.7943,-93.804815,-3.2769999999999997,88.73299999999999,163553,50,141.122,4.3864,4.1728,4.1713,4.0973,mp-6325,3.3528,JVASP-9782,Ba3MgTa2O9
2.826,2.8004,2.7906,-62.830216,-2.3,35.36,34565,45,83.26700000000001,5.8345,2.1177,2.1138,2.1125,mp-6391,3.4421,JVASP-9788,Na2ZnSiO4
2.5725,2.5599,2.55,-70.35329300000001,-2.6489999999999996,38.446999999999996,15619,45,78.544,6.816,2.0132,2.0084,2.0068,mp-6406,4.1019,JVASP-9790,Na2MgSiO4
4.3187,4.3129,5.3082,-101.60563,-3.26,77.633,159344,50,134.256,3.2331,3.8863,3.8819,5.0002,mp-6440,2.9516,JVASP-9792,CaTiSiO5
7.1034,6.6998,6.7114,-26.527447,-0.773,21.826999999999998,77275,55,32.578,2.8769,5.5962,5.3352,5.2003,mp-6450,2.0714,JVASP-9794,K2LiAlP2
5.4331,5.4331,5.2823,-88.25012199999999,-3.1239999999999997,84.947,163554,50,136.144,3.3612,4.6413,4.643,4.5225,mp-6474,2.7115,JVASP-9796,Ba3MgNb2O9
4.2612,4.2612,4.2612,-53.77645699999999,-2.9160000000000004,85.08,163373,50,136.3,4.8109,3.7195,3.7196,3.7193,mp-6492,3.8636,JVASP-9974,Ba2YSbO6
4.1748,3.9867,2.7102,-73.22077,-0.537,12.36,67582,50,21.8,5.1104,3.4567,3.3196,2.4062,mp-6511,4.0927,JVASP-9978,KCSN
4.7105,4.7105,4.7105,-65.86780999999999,-3.446,87.92,160172,50,145.733,4.4889,4.0422,4.0421,4.0425,mp-6613,3.4449,JVASP-9987,Ba2YTaO6
2.9411,3.0774,3.049,-101.84499,-3.235,38.82,69537,45,94.333,6.8299,2.4808,2.5411,2.5229,mp-6632,4.5112,JVASP-9990,Ca5B3O9F
2.616,4.5598,3.5607,-72.96389599999999,-0.44799999999999995,8.493,954,45,18.456,5.1965,2.2841,3.6643,2.9517,mp-6633,4.1346,JVASP-9991,NaCSN
5.0834,5.0834,5.0834,-61.063761,-3.3339999999999996,89.54,245456,50,149.033,3.6508,4.2928,4.2928,4.2928,mp-6653,2.9192,JVASP-9994,Ba2ErNbO6
4.2851,4.2851,4.2851,-51.787461,-2.9189999999999996,87.98,150862,50,142.333,4.7413,3.5925,3.5925,3.5926,mp-6687,3.6713,JVASP-9997,Ba2HoSbO6
4.3565,4.3663,4.3175,-50.986243,-2.799,31.066999999999997,246160,50,126.64399999999999,4.9426,3.7138,3.7219,3.6815,mp-6692,3.9993,JVASP-9998,Ba2PrSbO6
3.2569,3.3167,3.312,-51.565207,-2.1919999999999997,40.687,32602,45,85.744,5.2251,2.5975,2.5902,2.6053,mp-6929,3.5481,JVASP-10010,Ca2As2O7
8.4245,6.3757,6.9444,-20.63363,-0.493,12.28,60617,60,22.967,1.8369,6.0161,4.7679,5.1634,mp-6960,1.1231,JVASP-10014,Rb2SiAs2
4.4619,5.2781,5.1828,-18.929577,-0.9420000000000001,22.12,49752,50,49.367,2.0997,3.3318,3.8662,3.8038,mp-6983,1.3858,JVASP-10017,NaAgO
8.7365,6.4771,7.1511,-20.71221,-0.496,13.453,40426,60,24.689,1.9047,6.1879,4.7861,5.2909,mp-6984,1.092,JVASP-10018,K2SiAs2
10.5925,12.0167,10.0075,-16.469981,-0.757,16.82,41166,60,26.5,0.922,8.3351,9.2989,7.8535,mp-6987,0.4525,JVASP-10019,Sr(GaTe2)2
3.7182,3.7568,3.4542,-51.925163,-2.207,75.54,75254,45,167.36700000000002,4.6025,2.8326,2.8525,2.6966,mp-7027,3.0226,JVASP-10073,InBO3
3.306,2.773,2.7368,-48.915528,-3.423,53.013000000000005,75557,45,108.822,4.0746,2.6864,2.2666,2.2443,mp-7028,2.2772,JVASP-10074,YbOF
3.1124,3.0709,3.0828,-61.205006999999995,-3.2969999999999997,113.227,82504,50,194.044,6.2302,2.6289999999999996,2.5957,2.603,mp-7048,4.9439,JVASP-10076,Al2O3
3.1249,3.3199,3.2973,-72.305089,-3.444,70.893,151123,45,152.756,7.2587,2.5860000000000003,2.7175,2.7024,mp-7064,4.9337,JVASP-10079,Er2Si2O7
3.2978,3.4895,3.4734,-72.0352,-3.281,67.4,203131,45,142.4,5.3271,2.8394,2.9678,2.9561,mp-7079,4.7917,JVASP-10080,CaZrSi2O7
5.1873,5.1873,5.1873,-48.845672,1.5730000000000002,5.3,22397,40,11.933,4.3948,3.1305,3.1324,3.1310000000000002,mp-7139,3.173,JVASP-10087,N2O
4.3646,4.3651,4.592,-73.033112,-2.9930000000000003,68.167,93492,55,116.64399999999999,3.4946,3.4718,3.4724,3.7784,mp-7148,2.1173,JVASP-10089,K2SrTa2O7
3.1010000000000004,3.2795,3.2612,-72.537324,-3.471,75.347,412249,45,159.04399999999998,7.3243,2.5433,2.6579,2.6468,mp-7193,5.0013,JVASP-10095,Lu2Si2O7
13.7548,13.7548,6.757000000000001,-23.860873,-1.011,17.76,412794,70,29.566999999999997,0.9355,10.0415,10.0416,5.8383,mp-7199,0.0229,JVASP-10096,RbPrTe4
7.9367,7.9371,7.2557,-54.652193999999994,-1.265,13.567,281321,45,50.078,1.683,6.724,6.7242,6.1522,mp-7206,1.4355,JVASP-10097,TcAgO4
3.3124,3.4627,3.5925,-81.66868199999999,-1.993,34.0,281357,50,112.367,4.7332,2.4621,2.4953,2.542,mp-7210,2.6895,JVASP-10098,Cd2B2O5
5.065,5.065,5.065,-62.979926,-3.32,84.5,172407,50,141.833,3.6082,4.3016,4.3016,4.3016,mp-7251,2.9201,JVASP-10104,Ba2YNbO6
7.5817,7.9686,8.9326,-19.32911,-0.46799999999999997,9.867,2240,55,21.444000000000003,2.1509,5.8907,6.1508,6.6832,mp-7277,1.4841,JVASP-10107,Tl2GeS3
6.0096,5.9904,5.9179,-25.058184,-1.5130000000000001,24.5,9456,50,75.633,1.6268,5.311,5.2996,5.2485,mp-7374,1.5251,JVASP-10116,Ba(CuO)2
3.475,3.5494,3.9664,-17.664764,-1.824,21.587,9903,45,40.211,1.4175,3.0263,3.1022,3.5269,mp-7386,1.4002,JVASP-10118,NaAgF4
3.0074,3.055,3.2921,-19.619035,-1.8319999999999999,20.147000000000002,9905,45,39.578,2.3875,2.4663,2.5122,2.7411,mp-7388,2.0239,JVASP-10120,NaAuF4
3.5303,3.6031,3.3743,-53.478159,-1.8230000000000002,51.133,10320,50,74.656,3.7674,2.6622,2.6889,2.5523,mp-7404,2.2937,JVASP-10121,Na3SbO4
10.9414,8.017999999999999,7.9661,-31.512715000000004,-0.45899999999999996,14.9,14009,60,29.233,1.7727,6.7182,5.3973,5.3449,mp-7440,0.9435,JVASP-10122,NaP
9.3789,6.2919,6.2301,-30.281122999999997,-0.528,11.8,14010,60,22.533,1.9296,6.0657,4.5122,4.4972,mp-7441,1.1322,JVASP-10123,KP
4.374,4.9427,4.3428,-19.465751,-0.943,10.047,14092,55,18.744,2.5731,3.3546,3.7048,3.3986,mp-7446,1.3825,JVASP-10125,Rb2S3
6.2611,7.9998,7.0456,-15.019464000000001,-0.889,9.94,14093,50,17.267,1.6581,4.231,5.05,4.6901,mp-7447,0.0702,JVASP-10126,Rb2Se3
3.7215,3.9402,3.8651,-29.457877000000003,-2.405,15.793,14194,45,22.989,5.6545,2.418,2.622,2.6884,mp-7456,3.572,JVASP-10128,SnF2
3.752,3.752,3.7835,-29.429925,-2.403,9.5,14195,45,24.767,5.2271,2.5729,2.5729,2.7052,mp-7457,3.4530000000000003,JVASP-10129,SnF2
4.2697,6.4911,4.2688,-26.590452000000003,-0.512,14.307,15006,55,41.31100000000001,2.5637,3.1358,3.9769,3.1816,mp-7462,1.7333,JVASP-10131,Hg2SeO4
4.3624,5.018,4.9271,-20.523706,-1.1420000000000001,24.467,49756,50,50.943999999999996,1.7646,3.6764,4.1804,4.1133,mp-7469,1.3816,JVASP-10132,NaCuO
12.1447,7.8984,9.9519,-21.214864000000002,-0.5870000000000001,15.113,15584,80,26.921999999999997,1.1465,9.1113,6.0436,7.898,mp-7505,0.9327,JVASP-10138,K2P2Pd
3.2398,3.1937,3.3625,-57.60465,-2.1109999999999998,55.8,16618,50,101.1,4.67,2.4622,2.4445,2.5565,mp-7566,2.6346,JVASP-10140,InPO4
3.3127,3.4799,3.4245,-29.201133000000002,-2.213,13.547,18030,45,20.144000000000002,6.3069,2.2614,2.3825,2.4271,mp-7595,4.2989,JVASP-10142,GeF2
12.2949,10.3381,10.7472,-91.482792,-1.83,118.42,1031,50,251.033,2.1126,9.9866,8.6092,9.0013,mp-7596,1.6077,JVASP-10143,NbNO
9.0941,9.1941,8.6677,-44.739247,-2.0269999999999997,80.473,19005,55,192.456,2.1835,6.8660000000000005,6.912000000000001,6.6698,mp-7607,1.4269999999999998,JVASP-10146,TiHgO3
5.1478,3.9639,3.9738,-43.629283,-1.92,21.073,19019,50,36.622,4.9484,3.4463,2.8425,3.0147,mp-7609,3.3257,JVASP-10147,SbOF
2.3107,2.3003,2.2881,-18.979479,-2.479,10.14,19075,40,31.0,5.2509,1.8157,1.8139,1.8115,mp-7615,3.1891,JVASP-10148,Rb3TlF6
4.4319999999999995,4.4304,4.41,-60.636618000000006,-1.909,13.673,61,40,27.256,3.784,3.8398,3.8377,3.8102,mp-7621,3.3309,JVASP-10149,KTcO4
4.5747,5.2379999999999995,4.672,-19.516973999999998,-0.943,12.052999999999999,1263,75,21.355999999999998,2.5958,3.4391,3.8521,3.5721,mp-7667,1.3423,JVASP-10153,K2S3
7.0855,9.2306,8.4182,-15.026582000000001,-0.885,11.64,1264,55,19.933,1.6442,4.5072,5.4698,5.2357,mp-7670,0.0565,JVASP-10154,K2Se3
4.8444,5.2342,4.742,-89.51259499999999,-3.5180000000000002,76.773,415435,45,162.989,5.3197,3.8898,4.1536,3.8363,mp-7703,4.0518,JVASP-10156,DyTaO4
2.4995,2.5535,2.5198,-19.295248,-2.444,33.167,20364,45,101.344,6.535,1.8778,1.9036,1.8875,mp-7709,3.77,JVASP-10157,ZnF2
4.5457,4.9508,4.8621,-55.243874,-2.7569999999999997,58.02,22202,45,88.833,2.375,4.0807,4.5598,4.4547,mp-7714,2.2105,JVASP-10158,Li4UO5
3.2447,3.2447,3.4138,-49.830411,-1.6580000000000001,26.64,23783,50,22.733,5.3538,2.3612,2.3611,2.4957,mp-7812,3.207,JVASP-10181,GeO2