epsx,epsy,epsz,fin_en,form_enp,gv,icsd,kp_leng,kv,mbj_gap,mepsx,mepsy,mepsz,mpid,op_gap,jid,formula
8.8446,8.8446,8.1009,-3.8809718,-0.36,9.667,23176,60,17.910999999999998,2.5332,7.5858,7.5954,7.0395,mp-27922,2.062,JVASP-179,GeI2
3.5848,3.5958,3.6556,-28.538090000000004,-2.48,8.56,35458,50,21.6,6.044,3.1245,3.1079,3.1685,mp-28049,4.7613,JVASP-5443,BaBrCl
6.1542,5.0446,5.822,-52.516096999999995,-0.308,6.3870000000000005,35741,50,11.610999999999999,3.5526,4.7583,4.0969999999999995,4.5686,mp-28064,2.4779,JVASP-5446,SbS8Cl3
6.5665,6.3129,6.32,-11.9265,-0.9590000000000001,10.607000000000001,36170,55,25.644000000000002,4.1705,5.3753,5.1548,5.1904,mp-28077,3.1727,JVASP-5449,PbBr2
6.0533,5.9623,5.9956,-11.691864,-0.502,5.853,38253,60,9.689,2.6311,4.941,4.7373,4.7412,mp-28118,1.91,JVASP-5461,AlSbI6
16.1351,16.135,9.5853,-31.723712,-0.9620000000000001,47.647,644245,55,70.51100000000001,1.3371,15.3449,15.3673,8.9876,mp-2815,0.9224,JVASP-54,MoS2
5.9777,5.9777,4.8037,-48.379875,-1.442,12.44,39817,50,16.6,0.7806,4.3186,4.3701,3.8349,mp-28220,0.0011,JVASP-5476,HfFeCl6
5.9741,5.9741,5.8985,3.2760539,-0.5820000000000001,9.373,38116,55,19.489,3.3625,4.5383,4.54,4.4326,mp-28248,2.1189,JVASP-5485,CdI2
6.704,7.5206,6.9368,-26.045867,-0.934,12.86,69688,55,20.333,1.5306,5.7389,6.9527,6.2099,mp-28683,1.0472,JVASP-5560,Ta(ICl)2
9.6438,9.6083,6.5827,-5.390932,-1.355,20.906999999999996,72190,105,30.711,0.016,8.5815,8.5554,6.3791,mp-28753,0.0049,JVASP-5578,NdI2
9.6535,7.9652,7.6999,-94.438074,-0.045,8.007,74878,55,15.677999999999999,2.6807,7.5534,6.6,6.4943,mp-28885,1.9713,JVASP-5596,PSe
10.4272,10.4272,6.5482,-75.87716400000001,-1.26,20.933000000000003,79213,55,35.122,0.8863,8.9664,8.9802,5.8383,mp-28938,0.6979,JVASP-5602,Nb3TeCl7
11.3537,11.3537,9.2796,-60.28439,-0.46299999999999997,21.04,82792,55,32.133,0.8086,9.4591,9.4561,8.0396,mp-29117,0.0318,JVASP-5632,Ta3TeI7
5.9799,5.5667,5.337000000000001,-17.496912,-0.604,5.86,401396,60,11.567,3.1223,4.6501,4.3628,4.2165,mp-29408,2.1346,JVASP-5656,AlSeBr7
3.9696,3.9909,4.1011,-34.418757,-1.8769999999999998,9.3,402054,50,14.967,5.0029,3.2572,3.2492,3.3303,mp-29422,3.9122,JVASP-5659,HfCl4
8.9788,9.1202,9.5995,-33.489101,-0.672,7.06,401905,55,13.8,1.0206,7.6214,7.7952,8.2781,mp-29427,0.8168,JVASP-5662,Ta(TeBr3)2
9.94,6.9606,8.4511,-42.379554,-1.003,7.4270000000000005,401907,50,16.811,0.9027,8.0273,5.5374,6.8914,mp-29428,0.8036,JVASP-5665,Ta(TeCl3)2
6.1216,5.063,5.5447,-32.456542999999996,-1.3519999999999999,12.972999999999999,402406,50,22.589000000000002,1.6945,5.1721,4.0891,4.5436,mp-29465,1.1039,JVASP-5668,TaCl4
7.8459,7.5563,6.9306,0.17500594,-0.252,4.213,407982,55,9.922,2.2971,6.042999999999999,5.8445,5.4511,mp-29541,1.5562,JVASP-5683,GaTeI7
20.31,20.6927,14.2603,-6.2905175,-0.016,14.82,42884,65,47.8,0.8358,16.2196,16.5491,11.0182,mp-29643,0.0588,JVASP-5701,CuAsSe2
9.2277,9.2277,7.1948,-4.4929294,-1.1840000000000002,11.933,43731,105,22.189,0.006,5.6146,5.6144,5.8731,mp-29671,0.0018,JVASP-5710,TmI2
12.6074,12.6074,10.2199,-52.75340799999999,-0.564,19.76,86723,60,30.3,0.652,11.530999999999999,11.5324,9.5525,mp-29689,0.0164,JVASP-5713,Nb3TeI7
3.6505,4.2532,3.3481,-12.798013000000001,0.5539999999999999,10.66,77911,50,17.1,5.0715,3.1017,3.562,2.8707,mp-30068,4.3009,JVASP-5758,CIN
4.325,4.1624,4.941,-12.180155000000001,-0.391,5.46,412103,55,11.833,2.4399,3.1551,3.0964,3.5207,mp-30106,1.0472,JVASP-5770,AsCl5
4.4633,4.5569999999999995,4.5195,-14.725314000000001,-0.679,6.32,391247,50,9.1,3.759,3.7215,3.7960000000000003,3.7449,mp-30930,3.017,JVASP-4219,AlI3
6.7808,7.4445,8.2865,-30.850761,-0.147,12.353,413009,55,20.889,1.4509999999999998,5.6635,6.1241,6.832999999999999,mp-30938,1.0366,JVASP-5806,PAuS4
8.2191,8.434,6.7947,-23.018072,-0.625,21.333000000000002,413165,55,32.122,2.8524,6.5089,6.6433,5.6172,mp-30943,2.0673,JVASP-5809,MgPSe3
6.407,6.8667,7.1372,-1.8825171000000003,-0.387,6.327000000000001,413230,55,11.578,1.2201,5.4271,6.4193,6.4636,mp-30946,0.9986,JVASP-5815,Ga2PdI8
4.1214,4.2068,4.1754,-9.0009493,-0.794,6.867000000000001,413456,50,10.111,4.5019,3.2747,3.3541,3.3068,mp-30953,2.9881,JVASP-4237,GaBr3
5.5013,5.608,5.604,0.13197542,-0.45799999999999996,6.527,413457,50,9.511000000000001,2.9241,4.3185,4.4123,4.3791,mp-30954,1.9709999999999999,JVASP-4249,GaI3
8.9137,9.5551,7.2263,-39.313151,-0.98,24.186999999999998,51101,50,39.611,1.1673,7.2598,7.7754,6.14,mp-31015,0.7897,JVASP-5824,Ta3SBr7
10.6686,13.8285,8.7344,-17.703677,-0.289,11.7,68292,50,22.733,0.5032,11.5358,14.8583,9.1268,mp-31038,0.1626,JVASP-5827,CuSe2Cl
8.9449,8.7178,8.4333,-99.647403,-0.153,8.447000000000001,98792,50,14.344000000000001,2.3072,6.8087,6.7162,6.5665,mp-31070,1.5044,JVASP-5833,As8S9
13.4259,13.4259,9.2632,-22.836637,-0.272,20.906999999999996,75001,65,33.478,1.7423,9.9969,9.9797,7.4454,mp-31220,1.1925,JVASP-5839,AlSiTe3
8.2205,8.1188,6.321000000000001,-23.328934,-0.45899999999999996,24.406999999999996,201933,50,40.978,3.2801,6.3856,6.3153,5.2063,mp-3342,2.0439,JVASP-4423,ZnPS3
4.8683,4.6014,4.8701,-7.9034882,-1.084,8.367,55153,60,16.511,2.5912,3.9541,3.7609,3.9341,mp-383,1.6098,JVASP-4304,Rb2Te
7.0895,7.077000000000001,6.8395,-42.48831,-3.2439999999999998,60.5,161908,50,196.6,2.4742,6.0679,6.059,5.8907,mp-390,2.0233,JVASP-104,TiO2
13.5228,13.5228,13.5228,0.49664247,-0.409,13.76,161693,60,37.833,1.6399,6.5465,6.5465,6.5465,mp-406,0.8332,JVASP-23,CdTe
4.0326,4.0326,4.0326,-1.9753543999999998,-1.084,5.32,55136,50,13.267000000000001,3.4389999999999996,2.9785,2.9755,2.9911,mp-441,1.8872,JVASP-119,Rb2Te
6.4069,6.4088,6.4107,-62.12534,-3.4189999999999996,96.913,170091,55,178.356,2.3688,5.4459,5.447,5.4479,mp-4651,1.9061,JVASP-269,SrTiO3
30.2311,30.1647,14.2377,-14.363422,-1.42,34.62,79803,60,47.867,0.0837,26.6406,26.578000000000003,11.5048,mp-558110,0.0354,JVASP-323,TiS2
6.4838,6.4838,6.0146,-31.154429999999998,-3.352,97.22,245946,50,139.667,2.1726,5.5735,5.5731,5.2101,mp-5986,1.7486,JVASP-110,BaTiO3
20.7269,20.7269,13.1614,-22.24292,-0.24100000000000002,29.846999999999998,24155,55,43.443999999999996,1.001,18.7443,18.7459,11.6596,mp-602,0.7645,JVASP-60,Te2Mo
11.4287,11.4287,6.1318,-11.664723,-0.585,79.173,76431,45,123.322,1.8326,9.9929,9.9929,5.1492,mp-617,1.5221,JVASP-275,PtO2
47.0549,50.3935,26.7449,-26.854058000000002,-0.23800000000000002,2.987,655585,60,34.678000000000004,0.4059,10.0232,5.5224,7.9544,mp-6543,0.3246,JVASP-4501,VAg(PSe3)2
4.3866,4.3866,4.5612,-24.816682999999998,-1.65,125.06,163953,50,199.4,5.1966,3.7560000000000002,3.7560000000000002,3.8852,mp-661,4.4736,JVASP-39,AlN
14.6683,14.6683,16.1528,-5.2608026,-0.33399999999999996,20.747,43857,60,37.678000000000004,1.1417,9.4413,9.4413,9.1166,mp-665,0.1131,JVASP-122,SnSe2
5.7467,5.7467,5.7467,-15.85325,0.1,522.66,656475,50,437.4,5.0352,5.3186,5.3186,5.3186,mp-66,4.4572,JVASP-91,C
6.8699,6.8699,6.9498,-2.6288834,-0.67,16.08,154188,55,57.033,2.6008,4.4925,4.4924,4.5566,mp-672,1.0556,JVASP-95,CdS
2.8093,2.9021,2.6622,-20.533607999999997,-1.056,11.427,71398,45,24.011,4.2379,2.3483,2.4178,2.2381,mp-6920,3.0197,JVASP-4507,KNO3
2.5244,2.5244,2.5387,-57.865177,-2.9010000000000002,44.047,162611,45,39.411,8.097000000000001,2.1143,2.1143,2.124,mp-6930,5.9859,JVASP-41,SiO2
13.078,13.078,8.5511,-39.843892,-0.184,17.387,71971,65,34.278,1.2695,9.4309,9.4182,6.8066,mp-7008,0.2992,JVASP-4513,GaAg(PSe3)2
6.7673,7.6853,7.7692,-59.930431999999996,-0.17800000000000002,9.373,1995,55,14.522,3.0092,5.6026,6.1209,6.1417,mp-7260,2.2266,JVASP-4531,P4S5
5.0126,5.0126,4.4529,-16.182992000000002,-2.6039999999999996,21.54,15301,50,48.1,4.2264,4.3093,4.3091,3.8093,mp-7487,3.443,JVASP-4537,BaO
17.3559,17.6066,11.5594,-13.686767000000001,-0.6709999999999999,38.593,16948,50,58.622,1.3218,16.1811,16.4339,10.322000000000001,mp-7581,0.9932,JVASP-231,MoSe2
2.0429,2.0448,2.0469999999999997,-32.886333,-3.397,11.972999999999999,19077,45,29.489,9.1143,1.7069999999999999,1.7104,1.7143,mp-7617,5.1265,JVASP-4543,Rb3YF6
20.8921,20.8921,15.5221,-9.7459602,-0.415,44.266999999999996,659963,50,70.97800000000001,0.9978,16.3318,16.3351,11.4684,mp-762,0.7739,JVASP-125,PtS2
6.9357,6.9357,7.1222,-76.111783,-0.245,190.727,156190,55,213.278,3.0769,6.0082,6.0059,6.1069,mp-7631,2.3026,JVASP-182,SiC
19.3482,19.3482,37.4269,-60.423596999999994,-0.821,33.507,26249,95,54.411,0.0043,46.5043,46.5801,62.5403,mp-7926,0.0017,JVASP-536,TaSe2
4.6037,4.6037,2.7344,-31.129934000000002,-1.3730000000000002,165.013,27987,45,229.65599999999998,5.3285,3.5668,3.5668,2.4244,mp-7991,3.6453,JVASP-4570,BN
5.8255,5.8255,5.9877,-14.836706,-0.5720000000000001,107.88,153890,55,178.967,3.0843,4.4724,4.4724,4.6038,mp-804,1.9434,JVASP-30,GaN
4.3284,4.3284,4.3179,-7.9725186,-1.121,13.6,92772,55,33.8,4.053,3.0669,3.0667,3.1538,mp-8374,1.921,JVASP-4588,Na2S
7.6052,7.4352,7.7134,-26.40346,-0.853,8.593,37135,60,20.956,2.2288,5.9087,5.7487,6.0105,mp-8387,1.5611,JVASP-4591,Tl6TeO6
2.4893,2.4893,2.476,-35.999626,-3.5989999999999998,31.2,47246,45,60.833,9.0234,2.057,2.0568,2.0401,mp-8415,7.2483,JVASP-4597,K2HfF6
3.8282,4.1679,3.654,-13.18735,0.447,28.267,85783,45,56.411,3.95,3.1192,3.4263,2.9616,mp-9519,3.3327,JVASP-4639,AgCN
4.753,4.753,3.0767,-31.17955,-1.385,177.667,35538,45,245.044,6.1146,3.7173,3.7173,2.6817,mp-984,4.4598,JVASP-17,BN
7.4001,7.3877,7.747000000000001,-6.6450744,-0.7020000000000001,24.773000000000003,40824,55,40.389,2.5243,5.718,5.7255,5.5093,mp-9889,1.3454,JVASP-4657,GaS
9.8274,9.2154,7.8743,-37.357135,-1.357,28.186999999999998,42073,55,45.744,1.5608,8.6397,8.1255,7.3368,mp-9921,1.206,JVASP-368,ZrS3
9.2975,9.2975,8.8586,-13.756433,-0.439,26.46,43003,55,42.266999999999996,1.9637,7.2902,7.3383,6.7002,mp-9984,1.1013,JVASP-290,SnS2
11.9059,11.1507,10.7533,-99.904359,-0.132,25.1,43098,70,33.733000000000004,1.6184,9.3805,8.9602,8.4137,mp-9996,1.1839,JVASP-152,SiP2
15.5062,15.5062,8.8694,-28.618915,-1.058,42.126999999999995,26287,55,66.14399999999999,1.0426,15.7713,15.774000000000001,7.8749,mp-7939,0.6257,JVASP-2697,NaNbSe2
5.526,5.526,5.526,-7.4315492,-1.2409999999999999,70.48,616413,50,95.56700000000001,4.3762,4.6728,4.6631,4.7117,mp-422,3.3955,JVASP-1167,BeS
8.5218,8.5108,7.8003,-18.805639000000003,-1.775,35.247,33904,65,51.011,1.7967,6.6621,6.6592,6.3395,mp-8299,1.2211,JVASP-2781,Sr4As2O
8.4522,9.632,8.6771,0.0032347165999999997,-0.539,9.567,55179,55,15.911,1.7787,6.9623,8.1572,7.2425,mp-23202,1.6159,JVASP-1987,InI
8.2224,8.2224,7.3332,-6.7171762,-0.425,7.807,82541,55,18.011,2.3248,6.053,6.0519,5.737,mp-9385,1.5415,JVASP-2961,RbAu3Se2
5.6329,5.6329,5.6329,0.38059702,-0.203,5.06,161579,55,30.433000000000003,2.8678,3.8158,3.8158,3.8166,mp-22925,1.26,JVASP-1957,AgI
5.9727,5.9727,5.2532,-19.888258999999998,-2.239,36.393,157433,60,72.689,2.8153,4.7946,4.7958,4.3156,mp-12444,1.7739,JVASP-3183,SrCuSF
9.3842,9.5263,11.4524,-18.715995,-0.787,19.42,43909,65,30.0,1.6338,6.1189,6.2605,7.5909,mp-5414,0.7555,JVASP-2436,NaSbS2
3.9513,3.9512,3.9512,-9.391755999999999,-3.614,98.94,151764,50,139.4,5.8034,3.0645,3.0645,3.0645,mp-1216,3.5808,JVASP-1291,YbO
4.462,4.5188,6.6732,0.42061701,-1.239,17.2,72354,50,53.467,2.373,3.323,3.3485,4.3164,mp-706,1.8305,JVASP-1261,HgF
22.6165,22.6165,22.6165,-6.937321300000001,-0.782,43.82,245754,60,92.73299999999999,0.0963,20.8206,20.8207,20.8208,mp-2894,0.091,JVASP-1426,ScSnAu
3.424,3.424,3.3622,-18.444025,-3.2880000000000003,20.287,35393,50,43.478,6.3792,2.9964,2.9963,2.9472,mp-23070,4.9062,JVASP-3618,BaBrF
8.0365,8.026,7.3863,-20.263469,-1.734,36.747,33903,65,54.211000000000006,1.9295,6.182,6.1833,5.9397,mp-8298,1.2212,JVASP-2778,Sr4P2O
5.0447,5.6044,4.5741,-22.682429,-2.298,22.747,21009,55,38.478,3.9386,4.0772,4.4337,3.7929,mp-27616,2.8441,JVASP-3825,ErSCl
12.2104,12.2104,11.4381,-15.289446,-0.925,23.566999999999997,160122,55,44.911,1.3398,8.9658,8.9659,8.5281,mp-4024,0.8761,JVASP-2322,DyAgTe2
14.46,14.7885,8.0995,-23.651067,-0.889,106.447,72557,60,144.111,1.3780000000000001,11.132,11.3747,6.4343,mp-7017,0.8917,JVASP-1522,NaNbN2
7.5253,7.5253,7.5253,-22.509073,-0.6559999999999999,27.06,53335,50,42.2,2.1256,7.2999,7.3,7.2997,mp-10748,2.0565,JVASP-3126,TaCu3S4
12.3767,12.3767,12.3767,-4.8778029,-0.243,30.02,151218,65,50.433,1.7769,9.8794,9.8793,9.8794,mp-2624,1.3217,JVASP-1408,AlSb
4.5725,4.5725,4.4136,-30.619913,-3.239,40.18,31664,45,83.93299999999999,5.8751,3.8722,3.8722,3.7625,mp-27984,4.6469,JVASP-3927,PrClO
2.5941,2.5941,2.5941,-3.0316452000000003,-2.072,10.98,162798,45,18.3,7.8694,2.1883,2.1877,2.1905,mp-23295,5.0751,JVASP-1999,RbCl
2.4237,2.4237,2.4237,-8.5961093,-2.596,27.9,49587,45,63.5,6.2864,1.889,1.889,1.8889,mp-6951,3.2686,JVASP-2505,RbCdF3
3.8575,3.8684,3.6264,-18.997033,-3.003,58.167,15161,50,92.111,5.3660000000000005,3.1247,3.1303,3.0064,mp-7477,3.7060000000000004,JVASP-1546,RbErO2
5.0241,5.0241,5.0241,-6.4798218,-2.364,36.84,249177,50,53.0,3.6129,4.181,4.1743,4.207,mp-1087,2.5397,JVASP-1276,SrS
3.6721,3.6721,3.6721,-3.5201752999999996,-1.169,7.66,29208,50,18.267,4.4112,2.6336,2.6279,2.6565,mp-8041,1.9785,JVASP-1582,Rb2S
5.8119,5.8119,5.9839,-28.551816,-3.2430000000000003,59.853,25807,50,111.22200000000001,3.697,4.8562,4.8562,4.9942,mp-13972,2.3161,JVASP-3252,Sm2SeO2
11.1139,11.1139,5.3003,-4.582016599999999,-0.5539999999999999,30.647,12160,65,42.644,2.1006,6.7604,6.7604,4.2855,mp-7437,0.9378,JVASP-2565,KZnP
8.6129,8.6129,8.6129,-7.7123574999999995,-0.752,50.02,609021,55,83.367,2.5631,6.8742,6.8581,6.9389,mp-1550,1.7939,JVASP-1327,AlP
5.1272,5.1616,4.6266,-17.834698,-2.487,38.573,18105,45,119.089,2.7999,4.463,4.499,3.9408,mp-13695,2.5872,JVASP-1786,SmCuO2
6.4937,5.2433,7.6732,-5.651811599999999,-0.345,14.707,40316,50,43.843999999999994,1.9162,4.5097,3.7439,5.2458,mp-1224,1.217,JVASP-2133,HgO
6.6361,6.6361,5.4865,-28.068666999999998,-3.233,57.86,94472,55,109.8,2.443,5.5663,5.5663,4.7344,mp-3931,1.3074,JVASP-2301,SmSF
4.1504,4.1504,4.2008,-12.568005,-1.368,17.58,67254,50,28.767,3.6788,4.2624,4.2606,4.1162,mp-8751,3.0625,JVASP-2853,RbLiS
10.6495,7.3761,6.7742,-7.753431900000001,-0.8590000000000001,14.613,40432,55,28.355999999999998,1.3234,8.5944,6.0577,5.5606,mp-8623,0.8637,JVASP-2844,K2Te2Pt
16.7092,13.620999999999999,10.2178,-13.059478,-0.35600000000000004,13.552999999999999,78941,60,20.721999999999998,1.5474,12.5012,10.523,7.8366,mp-9254,1.055,JVASP-2931,Al2Te5
9.1511,9.399,13.2907,-12.069464,-0.584,23.686999999999998,660105,60,38.144,1.7693,6.5289,6.5734,8.6367,mp-19795,0.9470000000000001,JVASP-3414,InS
12.265,12.265,11.5743,-6.7659439,-0.759,42.727,30911,65,65.47800000000001,1.4554,9.036,9.0357,8.7182,mp-8276,0.7675,JVASP-2751,Sr(ZnP)2
4.1080000000000005,4.1303,3.9931,-25.329157000000002,-2.201,10.82,38235,45,19.1,3.8642,4.3073,4.3273,4.1998,mp-23309,3.5349,JVASP-3654,ScCl3
3.612,3.6484,3.5888,-10.967288,-1.6059999999999999,11.573,415874,45,24.322,2.1427,3.2425,3.2762,3.2211,mp-12442,2.0025,JVASP-3180,KAuF6
5.8512,5.5814,10.4955,-4.5504288,-0.41100000000000003,14.933,67260,55,25.421999999999997,1.8677,4.1437,3.9706,7.1232,mp-28591,0.9422,JVASP-3999,Na4HgP2
24.7227,24.7227,15.7463,-3.6569081,-0.626,29.506999999999998,100065,70,53.211000000000006,1.1421,10.9336,10.9336,10.9932,mp-7067,0.0372,JVASP-2520,Ca(CdAs)2
18.4827,21.8994,27.5602,-24.439091,0.005,89.367,647757,60,127.911,0.6265,15.7244,19.0459,22.7933,mp-2695,0.0419,JVASP-2193,Sb2Os
4.1975,4.1975,4.1975,-3.4381746,-1.156,15.76,54281,50,25.666999999999998,3.9328,3.0182,3.0182,3.0182,mp-1266,2.1726,JVASP-1297,Na2Se
3.9121,3.9121,6.0949,-14.002576000000001,-0.9690000000000001,16.793,644958,50,28.489,2.7567,2.6828,2.6832,4.2181,mp-2400,1.2785,JVASP-2178,NaS
5.8022,5.8022,5.9579,-28.602926,-3.1660000000000004,54.12,94415,50,102.93299999999999,3.6182,4.9287,4.9285,5.0565,mp-4764,2.3229,JVASP-2379,Pr2SeO2
10.7348,10.7348,11.2099,-5.4393572,-0.8,28.066999999999997,100045,65,42.443999999999996,1.2267,9.117,9.117,9.555,mp-9565,0.9012,JVASP-2994,Ca(MgSb)2
8.6977,8.6977,8.6977,-18.690385,-0.615,8.6,52431,60,23.733,2.6101,7.425,7.4117,7.4285,mp-10644,2.2366,JVASP-3120,TaTl3Se4
6.6294,6.4053,6.3738,-16.318431,-0.537,14.613,420033,55,46.489,2.3727,4.907,4.7756,4.7773,mp-12532,1.0572,JVASP-3192,KAg2PS4
6.6874,7.3548,7.2081,-75.365392,-1.364,35.567,2374,55,72.911,3.3978,4.8748,5.3343,5.1615,mp-23262,2.1894,JVASP-1225,Bi2O3
3.2132,3.2349,4.7361,-7.3399887999999995,-1.18,14.367,66276,45,31.811,3.1910000000000003,2.6415,2.6549,3.5626,mp-5072,2.1974,JVASP-2409,Rb2HgO2
9.6597,9.6597,10.0076,-8.7795618,-1.04,35.586999999999996,30916,60,48.144,1.6045,7.6655,7.6753,7.9281,mp-8280,1.1521,JVASP-2763,Ba(MgAs)2
3.1823,3.2084,3.4323,-22.674418,-2.451,13.14,30411,50,26.0,6.566,2.2967,2.3192,2.4393,mp-1880,4.657,JVASP-2157,SbF3
5.0914,6.2589,6.2989,-24.146832,-2.301,65.84,95214,55,111.8,0.0154,4.0263,6.0167,5.6909,mp-4359,0.0121,JVASP-2340,Sr2PdO3
8.2072,8.2072,7.6833,-8.747347300000001,-0.9570000000000001,17.633,50183,55,55.856,2.3651,5.8493,5.8479,6.0208,mp-8579,0.9243,JVASP-2835,Ba(AgS)2
6.6352,6.6388,6.6637,3.3220330000000002,-0.22699999999999998,6.2,150343,55,18.767,2.1218,4.6815,4.6837,4.6996,mp-23485,1.0656,JVASP-3681,Ag2HgI4
5.8729,8.9564,6.3503,-6.5174424,-0.05,6.82,203216,50,11.067,2.3942,5.0463,7.2216,5.4042,mp-29443,1.5601,JVASP-4074,PI2
22.8797,22.8797,22.8797,-1.8556772000000001,-0.149,29.88,635319,95,45.9,0.5935,13.8765,13.8765,13.8766,mp-1156,0.1079,JVASP-1177,GaSb
3.8369999999999997,3.8474,3.6166,-19.057512,-3.023,59.66,15162,50,93.7,5.6248,3.088,3.0914,3.0154,mp-7478,3.7825,JVASP-1549,RbTmO2
14.8218,14.8218,12.5476,-18.038176,-0.884,194.593,249114,65,194.489,0.0102,12.7023,12.7023,12.5814,mp-2252,0.0097,JVASP-1378,ScB2
5.8041,5.8041,5.9615,-28.602672,-3.195,56.173,25806,50,105.85600000000001,3.6273,4.8751,4.8746,4.994,mp-13971,2.3138,JVASP-3249,Nd2SeO2
6.359,6.359,5.6773,-21.984344,-1.381,64.84,95665,50,151.233,1.7602,4.2231,4.2231,4.0778,mp-11020,0.7878,JVASP-3144,GaAgO2
7.4334,7.622999999999999,6.4527,-13.999308,-0.295,15.127,14212,50,29.611,1.7041,6.8218,7.0427,5.8788,mp-27397,1.4228,JVASP-3792,IrBr3
5.6804,5.7085,5.127999999999999,-13.974073,-1.99,27.16,81396,55,42.766999999999996,3.332,4.5401,4.5498,4.3508,mp-9362,2.2049,JVASP-1654,RbPrS2
10.8162,10.8456,10.2686,-26.750664,-1.62,121.10700000000001,82538,55,165.378,1.4780000000000002,7.0274,7.0506,6.5924,mp-9383,0.1624,JVASP-1681,SrHfN2
8.9613,8.8315,7.6997,-10.628738,-0.45,14.587,28245,50,27.211,1.3161,8.7452,8.5985,7.372000000000001,mp-27871,1.1667,JVASP-3897,RhBr3
22.9376,11.1402,18.6422,-8.2116444,-0.35,12.913,80945,70,21.489,0.8554,15.7607,7.6161,12.5599,mp-29055,0.0316,JVASP-4038,KSb2
3.6359,3.6359,3.6359,-1.3485200000000002,-1.358,10.88,61502,50,17.933,5.6716,2.7773,2.7767,2.7792,mp-23268,3.8506,JVASP-1996,NaI
4.3676,4.3676,4.3676,-13.693806,-1.3219999999999998,10.64,29028,50,19.133,2.2375,3.8991,3.8975,3.9044,mp-23350,1.7163,JVASP-3657,Rb2PtCl6
23.1794,15.9513,16.4633,-5.1353205,-0.073,14.667,73700,55,33.944,0.0413,19.1444,12.0322,12.6175,mp-2793,0.0374,JVASP-1423,AuSe
3.543,3.543,3.543,-3.7054158999999998,-1.2229999999999999,9.86,641321,50,20.733,4.9973,2.5869999999999997,2.5869999999999997,2.5871,mp-1022,2.3842,JVASP-1270,K2S
5.5173,5.5173,5.5173,-14.358425,-1.909,27.1,426,60,38.467,2.176,4.5009,4.501,4.5009,mp-27294,1.5645,JVASP-3783,Ca3AsBr3
27.1422,21.5026,17.3363,-7.6758855,-0.585,10.667,30734,70,19.544,0.765,16.2169,12.6251,10.8641,mp-31002,0.0201,JVASP-4149,Rb2Te5
20.0254,20.0254,20.0254,-9.4971415,-1.1079999999999999,43.78,57259,60,94.76700000000001,0.128,17.3137,17.3136,17.3137,mp-11836,0.0087,JVASP-1750,ErSbPd
10.5943,10.8084,12.1485,-11.650499,-0.45799999999999996,15.08,156129,60,56.4,1.6152,4.5464,4.5606,4.5680000000000005,mp-19833,0.6147,JVASP-3420,InAgS2
3.7548,3.7548,3.641,-3.4281648000000002,-1.5959999999999999,14.527000000000001,52366,50,24.211,6.2375,2.9678,2.9729,2.8837,mp-30034,4.4784,JVASP-2068,MgBr2
7.9629,7.9224,7.709,-14.536973000000001,-0.731,21.647,33827,55,37.678000000000004,2.3422,6.0219,5.9989,5.9822,mp-3038,1.4625,JVASP-2205,Al2HgSe4
12.0953,12.0953,11.235,-19.527843,-0.956,23.226999999999997,154792,55,44.478,1.1622,9.7608,9.7608,9.1567,mp-12903,0.8439,JVASP-3201,YAgTe2