epsx,epsy,epsz,fin_en,form_enp,gv,icsd,kp_leng,kv,mbj_gap,mepsx,mepsy,mepsz,mpid,op_gap,jid,formula
4.7382,4.7382,5.0322,-82.784006,-3.175,57.22,82004,50,121.26700000000001,2.8898,3.9196,3.9197,4.2133,mp-20980,2.4702,JVASP-12350,NaNdTiO4
5.0632,5.0416,5.3322,-57.355874,-2.384,56.913000000000004,36629,55,111.956,2.6035,3.9419999999999997,3.8775,4.063,mp-21137,1.5196,JVASP-12362,Ca2PbO4
4.6267,4.6733,4.7096,-38.947305,-1.403,27.493000000000002,30993,50,64.089,5.1677,3.5839,3.5208,3.4769,mp-21190,3.4767,JVASP-12365,PbSO3
4.8382,4.8382,4.315,-92.705322,0.153,20.52,51494,40,27.3,3.8428,3.9933,3.9915,3.5207,mp-21231,3.4728,JVASP-12368,FeSn2(CN)6
4.6691,4.29,4.2544,-31.533234000000004,-1.3840000000000001,19.133,1413,55,43.156000000000006,2.3396,3.5405,3.4187,3.3741,mp-21489,1.37,JVASP-12384,Rb2PbO3
9.4049,10.1187,9.1894,-10.957467999999999,-0.561,14.052999999999999,300137,60,23.589000000000002,1.9833,5.9005,6.5922,6.0649,mp-21510,0.4824,JVASP-12389,K2NaInAs2
8.5923,7.7619,7.875,-13.946976000000001,-0.519,15.687000000000001,300132,60,26.378,2.371,5.8467,5.2461,5.4097,mp-21511,1.1144,JVASP-12390,K2NaInP2
4.9119,4.8348,4.8182,-65.89363399999999,-1.7890000000000001,39.833,38350,55,72.889,2.6045,3.532,3.4746,3.498,mp-22170,1.4217,JVASP-12409,Li4PbO4
5.0609,5.0609,5.0609,-60.347221999999995,-3.24,76.82,109153,50,139.033,3.6772,4.2558,4.2558,4.2558,mp-22184,2.9243,JVASP-12412,Ba2SmNbO6
8.9412,9.0321,8.9705,-38.152972,-1.889,39.187,245602,50,104.27799999999999,0.5373,8.692,8.5963,8.6537,mp-22230,0.0849,JVASP-12417,BaPbO3
5.9362,6.0301,6.0905,-42.816765000000004,-1.6019999999999999,53.626999999999995,35182,50,91.57799999999999,2.0974,4.1072,4.1488,4.2453,mp-22450,1.1226,JVASP-12429,Li2PbO3
3.9448,3.9160000000000004,4.0972,-55.395362,-1.896,55.573,47104,45,84.48899999999999,3.463,3.2408,3.2278,3.3088,mp-22538,2.4141,JVASP-12435,Li8PbO6
4.0662,4.5583,3.5294,-76.260163,-1.273,19.127,109831,45,36.644,3.8706,3.1104,3.3814,2.8151,mp-22747,2.8558,JVASP-12450,Pb(CO2)2
5.5359,5.8839,5.9972,-22.134056,-0.985,12.587,41179,55,20.678,4.1783,4.246,4.4879,4.5609,mp-22908,3.0678,JVASP-12465,BiCl3
16.2051,15.9436,16.4993,-28.15235,-0.349,22.453000000000003,34936,60,53.956,0.8784,12.0155,12.2333,12.6182,mp-22982,0.0213,JVASP-12471,CuBiS2
6.2603,6.1807,6.0475,-14.70925,-1.109,14.747,45881,50,32.811,4.4587,4.8256,4.7806,4.6887,mp-22997,3.551,JVASP-12473,PbBrCl
7.2679,6.6461,7.1331,-5.0043958,-0.46799999999999997,14.093,2137,55,57.122,1.3668,4.2999,4.1488,4.2331,mp-22999,0.3659,JVASP-12474,Hg3(ClO)2
34.0311,34.0311,32.6039,-16.832720000000002,-0.267,22.006999999999998,250249,70,32.644,0.8172,24.0883,24.0918,22.9083,mp-23005,0.1207,JVASP-12475,Bi4Te7Pb
5.5336,5.604,5.8122,-50.468203,-1.51,67.227,35478,45,110.844,3.4139999999999997,4.2839,4.3844,4.5099,mp-23018,2.6788,JVASP-12477,BiSbO4
3.4527,3.4486,3.4042,-18.189397,-1.903,15.113,410191,45,38.489000000000004,6.5159,2.8446,2.8429,2.8236,mp-23034,4.5104,JVASP-12478,SrZnCl4
5.5191,5.4773,5.3343,-17.204707,-1.219,12.052999999999999,26663,45,21.622,4.0235,4.4349,4.3932,4.2735,mp-23043,3.0326,JVASP-12480,RbPb2Br5
4.5717,4.5717,3.8442,-46.965234,-1.393,27.293000000000003,65206,55,53.356,4.7363,3.3771,3.3777,2.9295,mp-23083,3.0508,JVASP-12487,KAs4BrO6
6.1741,5.9841,5.705,-30.249935999999998,-1.409,24.96,31860,50,54.733000000000004,3.2913,4.6602,4.539,4.3763,mp-23084,2.1682,JVASP-12488,BiPbClO2
5.4873,5.5082,5.4044,-44.281746999999996,-2.234,8.573,162454,50,126.056,2.9737,4.4465,4.4593,4.3965,mp-23091,2.0782,JVASP-12489,Ba2BiSbO6
5.1513,5.0003,5.1344,-24.598545,-1.7,17.0,200212,50,40.467,3.8795,3.8943,3.8393,3.8893,mp-23104,2.6492,JVASP-12493,Pb2ClOF
5.0254,5.0254,4.213,-46.22664,-1.358,26.933000000000003,65207,55,51.422,4.0854,3.733,3.7333,3.2223,mp-23126,2.5469999999999997,JVASP-12496,KAs4IO6
7.9993,6.4676,6.9314,0.18268632,-0.18100000000000002,7.26,54796,60,25.7,2.4208,5.5314,4.5966,4.9132,mp-23140,1.2331,JVASP-12500,AgHgSI
3.6838,3.8156,3.7119999999999997,-43.887267,-2.596,41.253,9015,50,112.389,6.5104,2.8159,2.8976,2.8276,mp-23237,5.1673,JVASP-12506,BiF3
5.4957,5.3601,5.3931,-17.141901,-1.23,12.673,27736,50,31.156,5.0766,4.109,4.0327,4.073,mp-23291,3.9219,JVASP-12511,PbCl2
9.2474,7.8214,8.8413,-23.984105,-0.721,12.46,100173,55,27.267,2.7404,6.8312,5.7515,6.4939,mp-23318,1.8197,JVASP-12514,BiSCl
3.7124,3.6171,3.8782,-61.233862,-2.291,50.927,245889,45,75.278,5.6846,2.8579,2.8077,2.9488,mp-23349,3.9730000000000003,JVASP-12517,Bi(BO2)3
5.6739,5.3154,5.3767,-38.967145,-0.397,18.307000000000002,98740,45,42.611000000000004,4.0226,3.9610000000000003,3.7494,3.8572,mp-23407,2.7402,JVASP-12522,Hg(IO3)2
3.509,3.5076,3.4943,-31.547416,-0.769,12.547,89510,45,25.244,3.8229,2.7911,2.7889999999999997,2.7721,mp-23450,2.4541,JVASP-12529,RbIO4
26.2428,26.2428,17.4912,-13.535032999999999,-1.247,10.7,60261,55,21.967,0.0221,24.9305,24.6172,32.0437,mp-23486,0.0075,JVASP-12533,RbNiCl3
3.2684,3.2822,3.3051,-10.676002,-1.479,6.567,72930,50,14.511,5.8396,2.6128,2.6058,2.614,mp-23495,3.6819,JVASP-12535,K2ZnBr4
7.0182,6.9632,6.7782,-12.904587,-0.82,10.513,151985,55,19.289,2.5054,5.6618,5.6108,5.4599,mp-23507,2.2408,JVASP-12536,InSn2Br5
3.2562,3.2726,3.2863,-10.693837,-1.4809999999999999,6.952999999999999,72931,50,14.189,5.9084,2.5974,2.6003,2.6074,mp-23535,3.7601,JVASP-12540,K2ZnBr4
6.5209,5.0925,6.7836,-6.6463109,-0.39399999999999996,7.56,32662,50,13.033,2.0784,4.1909,3.4766,4.2827,mp-23536,0.8152,JVASP-12541,SbI3Cl8
2.8763,2.9474,3.2488,-16.863402,-1.765,9.667,10326,45,26.511,5.4281,2.2482,2.2969,2.5029,mp-23550,3.1375,JVASP-12544,KBrF4
6.29,6.2897,5.9746,-84.637904,-2.5580000000000003,9.84,156943,50,144.667,3.2023,4.9214,4.9212,4.7098,mp-23611,2.1313,JVASP-12549,BaTa2Bi2O9
3.342,3.2441,3.3514,-77.241708,-1.521,38.52,109739,45,90.667,5.8812,2.7312,2.7021,2.734,mp-23664,4.018,JVASP-12551,YH3(CO2)3
3.0938,3.0938,3.0151,-32.138829,-0.128,11.207,155718,45,20.978,6.6006,2.2571,2.2571,2.2114,mp-23709,4.6642,JVASP-12556,Mg(AlH4)2
3.8045,3.8983,3.8811,-26.375944,-0.295,35.553000000000004,155808,55,49.256,5.6732,2.8003,2.8367,2.8424,mp-23711,3.9833,JVASP-12557,MgH2
5.1625,5.2592,5.2486,-25.089057,-0.188,28.987,155809,50,59.943999999999996,3.8511,3.6859,3.742,3.7363,mp-23712,2.3712,JVASP-12558,MgH2
4.2780000000000005,4.3758,4.5015,-33.284116999999995,-0.688,34.607,155987,50,48.843999999999994,4.5068,3.3293,3.3533,3.4246,mp-23713,3.3015,JVASP-12559,CaH2
3.9474,4.0247,4.1171,-32.334081,-0.664,26.386999999999997,155988,50,39.944,4.6167,3.2236,3.2315,3.2845,mp-23714,3.4366,JVASP-12560,SrH2
4.2067,4.2878,4.3864,-33.367589,-0.608,18.367,155989,50,32.411,3.9873,3.4653,3.4646,3.5548,mp-23715,2.9992,JVASP-12561,BaH2
3.6761,3.5854,3.4935,-45.085232,-0.106,31.686999999999998,156311,50,32.078,5.1547,2.7829,2.7204,2.6928,mp-23719,3.7443,JVASP-12562,BeAlH5
3.3179,3.2297,3.3265,-75.360175,-1.518,36.28,249151,45,87.3,6.2701,2.6808,2.6379,2.685,mp-23771,4.3147,JVASP-12568,SmH3(CO2)3
3.3782,3.6041,3.1954,-42.773464000000004,-1.287,16.993,20862,50,27.289,5.892,2.6754,2.8274,2.5312,mp-24433,4.3247,JVASP-12600,KHSeO3
8.2147,8.2372,7.3522,-22.622185,-0.195,14.76,2490,55,28.767,2.6067,6.0604,6.044,5.7544,mp-27171,1.7392,JVASP-12728,Hg2P2S7
3.8408,3.7995,3.7797,-35.090177000000004,-2.141,60.12,2521,55,145.033,3.6709,2.6307,2.6163,2.6236,mp-27175,1.5435,JVASP-12730,InOF
8.242,11.6609,10.0534,-23.289801,-0.17600000000000002,46.507,8014,50,109.344,1.3843,6.5317,9.5533,8.121,mp-27253,0.9734,JVASP-12739,Au2O3
5.2672,4.6871,5.1374,-72.650193,-1.6640000000000001,23.787,8017,50,90.811,2.5398,4.0812,3.8016,3.9236,mp-27254,1.9079,JVASP-12740,Ba(TeO3)2
7.6395,7.6691,7.702999999999999,-16.103931,-0.601,20.886999999999997,8028,55,30.178,2.9363,5.84,5.8439,5.8692,mp-27255,2.0718,JVASP-12741,Ga2TeS2
7.1359,8.2156,6.9783,-27.622186,-0.231,20.453,8190,50,53.388999999999996,1.4755,5.6161,6.2521,5.5233,mp-27265,1.0994,JVASP-12742,AuClO
11.4847,10.9752,9.8783,-6.8678068,-0.889,7.007000000000001,9577,55,17.278,0.4679,12.2911,11.8969,10.424000000000001,mp-27300,0.0132,JVASP-12746,RbAuBr3
7.2303,6.6101,6.8599,-15.952447,-0.597,16.153,9627,50,67.98899999999999,1.3466,4.7736,4.5951,4.699,mp-27303,0.7916,JVASP-12747,NaAg3O2
3.6647,3.7848,3.4712,-14.385708,-1.395,4.52,12149,60,14.1,4.8659,2.952,2.951,2.772,mp-27369,3.7155,JVASP-12752,RbGeCl3
4.3751,4.4615,4.9191,-23.097435,-1.764,12.392999999999999,647,50,22.389,4.4738,3.3702,3.4309,3.6102,mp-27373,3.3124,JVASP-12754,SnClF
3.8715,3.8616,3.7502,-10.840156,-1.1640000000000001,6.473,14105,50,16.889,3.6214,3.0818,3.0709,2.9966,mp-27385,2.1241,JVASP-12755,KTlCl4
4.2574,4.2495,4.1578,-31.447069,-0.71,18.953,14287,50,35.356,3.282,3.1946,3.1885,3.1194,mp-27401,1.8446,JVASP-12757,NaIO4
3.9014,3.8752,3.9373,-25.998082,-2.35,11.967,15706,50,29.978,5.4628,3.4509,3.4214,3.466,mp-27456,4.2595,JVASP-12764,BaBr2
5.0509,4.7352,4.6778,-28.064903,-2.024,15.693,948,50,26.256,3.7835,3.4654,3.1936,3.158,mp-27480,2.6421,JVASP-12769,Sn2OF2
7.5571,7.557,5.9959,-78.904104,-1.248,69.68,16232,45,117.8,3.0057,6.2104,6.2087,5.1758,mp-27487,2.2928,JVASP-12770,Li2ThN2
3.4772,3.4772,3.4772,-61.848735,-2.366,116.74,1322,50,187.967,2.6342,2.8159,2.8153,2.8182,mp-27608,1.4671,JVASP-12782,Be4TeO7
27.8119,27.546,25.6762,-9.2912125,-0.265,21.64,28742,80,57.667,0.0047,19.5707,19.3497,17.5079,mp-14089,0.0023,JVASP-12788,TlCuS2
4.4579,4.6014,4.5951,-48.454361999999996,-1.145,11.54,300161,55,28.133000000000003,4.6661,3.3039,3.3862,3.3899,mp-18165,2.888,JVASP-12798,Na3GaS3
4.5698,4.5026,4.7284,-37.426877000000005,-1.135,9.693,23253,55,21.555999999999997,3.4507,3.4442,3.4162,3.5304,mp-27670,2.039,JVASP-12807,Rb4In2S5
4.5563,4.7075,4.5787,-32.123129999999996,-1.141,13.713,300175,55,28.456,3.8182,3.2449,3.3402,3.2524,mp-29376,2.0234,JVASP-12818,Na5InS4
5.6879,5.6879,4.8815,-20.559801999999998,-1.27,43.593,95670,50,132.356,0.529,4.5047,4.5046,3.8082,mp-549158,0.4369,JVASP-12848,InCuO2
11.49,11.49,9.9567,-17.894809,-0.479,15.82,35597,65,31.267,1.3193,6.1509,6.1459,6.2699,mp-571103,0.57,JVASP-12862,In5AgSe8
3.2617,3.3516,3.4353,-46.390799,-1.5719999999999998,23.953000000000003,69630,50,52.821999999999996,4.4097,2.1249,2.177,2.2034,mp-8840,1.9366,JVASP-12873,Na5InO4
5.5293,4.3606,4.4946,-65.28379,-0.8190000000000001,13.007,73084,50,22.944000000000003,3.3563,4.3637,3.6283,3.7347,mp-9047,2.3378,JVASP-12875,RbBS3
45.5415,45.5415,45.5415,-8.6719588,-0.767,45.64,656122,100,119.46700000000001,0.0097,31.3658,31.3658,31.3658,mp-2391,0.0091,JVASP-14533,YbPd3
26.965,27.0682,28.8444,-17.318458,-0.336,169.627,26868,80,193.578,0.0148,25.7579,25.877,27.6283,mp-2592,0.0037,JVASP-14970,Si2Mo
46.215,46.7293,52.9545,-15.599456,-0.389,83.4,608074,85,103.9,0.005,45.478,46.1255,57.6327,mp-2614,0.0018,JVASP-14981,HfAl3
14.1943,14.1943,14.1943,-3.5824955999999997,0.114,14.46,249566,65,22.5,0.2578,10.5401,10.5401,10.5401,mp-2639,0.1962,JVASP-14992,Na3N
35.7153,35.7153,116.7,-2.7032877999999996,-0.657,58.053000000000004,106754,100,81.189,0.009000000000000001,33.5484,33.5498,230.1362,mp-2684,0.0045,JVASP-15015,TbGa2
15.8189,15.9291,14.5527,-9.0385725,-0.429,48.373000000000005,409057,85,62.722,0.0061,13.3108,13.3257,13.1398,mp-2700,0.0059,JVASP-15024,CaSi2
42.076,42.076,13.8359,-33.120279,-1.193,194.74,150967,55,318.467,0.0445,29.6725,29.6727,13.3188,mp-2701,0.0352,JVASP-15025,NbN
22.2602,22.2602,22.2602,1.1482945,-0.061,12.98,162602,65,37.033,0.8198,30.9853,30.9848,30.9866,mp-2730,0.2095,JVASP-15033,HgTe
14.2081,14.2081,14.2081,-4.0677042000000005,-0.465,33.32,642257,95,79.233,0.0549,9.1699,9.1683,9.1701,mp-2743,0.0322,JVASP-15039,LiPd
38.2745,38.2745,38.2745,-10.633078,-1.6030000000000002,68.7,157503,60,99.3,0.217,33.0904,33.0904,33.0904,mp-2807,0.1469,JVASP-15066,ScP
26.1035,26.1035,26.1035,-1.685475,-1.08,29.02,612470,105,64.367,0.0089,34.7565,34.7565,34.7565,mp-2818,0.0076,JVASP-15069,YbAu
13.292,13.292,13.292,-14.637908,-2.155,160.82,157501,55,207.933,0.736,8.9805,8.9805,8.9805,mp-2857,0.3578,JVASP-15086,ScN
40.4224,40.4224,40.4224,-2.2988967000000002,-0.235,15.06,655132,95,68.5,0.0634,29.66,29.66,29.66,mp-3477,0.0231,JVASP-15215,MgAgAs
37.4652,37.4652,22.1338,-24.31673,-1.2670000000000001,49.22,54285,70,114.03299999999999,0.0258,32.2424,32.2424,17.6879,mp-3570,0.0052,JVASP-15234,NdPPd
16.5236,16.5236,17.8124,-7.1116385,-0.48200000000000004,40.68,162865,95,56.833,0.0077,15.1264,15.1122,17.6572,mp-3698,0.0026,JVASP-15255,SrAlSi
36.563,37.1861,48.0955,-12.056791,-0.562,72.253,106843,90,112.289,0.0042,30.2888,30.5602,36.3868,mp-3997,0.0009,JVASP-15298,Sm(CuSi)2
35.8485,36.2072,42.2144,-12.212427,-0.55,71.347,106876,75,107.611,0.0158,31.2517,31.5088,35.7016,mp-4014,0.0107,JVASP-15302,Pr(CuSi)2
13.0856,23.3139,22.285,-20.931898999999998,-0.426,102.3,57054,60,177.1,0.0243,13.5828,23.6484,22.5946,mp-4037,0.0059,JVASP-15304,TmNiC2
12.0442,12.0442,12.0442,-10.986853,-0.111,132.78,43828,55,141.2,0.3057,11.9721,11.9721,11.9721,mp-4262,0.1451,JVASP-15348,BeAlB
44.8071,44.806999999999995,30.206,-11.43638,-0.853,41.173,245763,70,80.689,0.0298,33.7392,33.7392,27.6378,mp-4304,0.022000000000000002,JVASP-15356,SmSnAu
38.6564,39.5229,56.6472,-11.694571,-0.534,69.74,106845,75,116.96700000000001,0.0255,32.9444,33.4532,43.81,mp-4305,0.0134,JVASP-15357,Er(CuSi)2
40.0219,40.0219,28.4156,-7.6538599000000005,-0.5920000000000001,41.54,55824,65,77.9,0.1133,34.772,34.7723,26.098000000000003,mp-4311,0.0366,JVASP-15358,HoAgSn
38.5286,40.2492,63.5239,-13.6998,-0.769,33.1,47170,80,82.46700000000001,0.0053,34.2324,35.8648,58.0256,mp-4370,0.0026,JVASP-15369,Sr(AsPd)2
27.6263,29.5981,27.0183,-20.442343,-0.4,76.807,653884,60,113.211,0.0415,34.2423,34.7384,33.5375,mp-4962,0.0147,JVASP-15488,CoSbS
45.1401,45.1401,41.2396,-12.043493,-0.843,45.626999999999995,245769,60,99.64399999999999,0.051,34.542,34.544000000000004,32.6275,mp-5519,0.033,JVASP-15593,HoGeAu
39.6307,39.6307,28.2397,-11.938208,-0.633,42.3,245234,65,76.467,0.1052,33.8862,33.8863,27.3037,mp-5729,0.0086,JVASP-15630,YAgSn
18.1535,18.1535,14.9557,-6.3957894,-0.7340000000000001,35.893,659589,65,59.288999999999994,0.0586,15.0818,15.0818,12.1798,mp-5910,0.0302,JVASP-15653,CaCuSb
36.6423,36.8633,41.2865,-8.5061319,-0.467,52.48,164078,75,96.133,0.0121,31.0322,31.1943,31.8073,mp-5934,0.0098,JVASP-15658,Yb(CuSi)2
46.7678,46.7679,29.7086,-13.403955999999999,-0.703,36.527,245753,65,87.27799999999999,0.0251,39.2353,39.2357,28.4098,mp-6919,0.0069,JVASP-15697,ScSnAu
34.117,34.4593,39.1643,-16.030957,-0.852,45.567,36371,70,113.57799999999999,0.0098,32.724000000000004,32.5348,31.564,mp-6926,0.0069,JVASP-15698,Ca(PPd)2
22.5501,22.5501,4.6975,-5.3398185,-0.71,16.32,75026,70,35.3,0.6667,-426.3693,-425.1555,4.033,mp-7025,0.4247,JVASP-15725,RbTeAu
16.8705,16.8705,16.8705,-6.2440914,-1.389,35.96,77936,95,63.233000000000004,0.0239,16.1576,16.1575,16.1576,mp-7131,0.0046,JVASP-15751,PrTe
8.6171,8.6171,7.2229,-6.2790246,-0.094,22.107,92310,80,35.778,0.8796,4.5603,4.5603,4.6875,mp-7149,0.0476,JVASP-15758,Na2LiN
23.8951,23.8951,23.8951,-9.165813400000001,-1.704,69.04,77850,55,92.96700000000001,0.3254,16.6414,16.6414,16.6414,mp-7171,0.1415,JVASP-15769,TmP
25.0104,24.9162,23.2938,-9.3158609,-0.32,37.047,2734,75,89.744,0.0097,31.9565,32.8346,24.6058,mp-7298,0.006,JVASP-15786,Li(CuP)2
39.0704,39.6007,46.7444,-11.245242,-0.47,34.547,412,80,94.978,0.0067,35.2488,36.4861,41.8525,mp-7364,0.0033,JVASP-15792,Ca(SiAu)2
32.7133,32.7133,16.2719,-1.9370336,-0.48700000000000004,19.58,12150,60,46.467,0.4085,14.822000000000001,14.822000000000001,12.5628,mp-7429,0.1056,JVASP-15806,Ca(ZnSb)2
32.4917,32.4917,16.1238,-1.1589675,-0.536,18.267,12153,70,40.278,0.5341,13.7322,13.7322,11.5811,mp-7432,0.0247,JVASP-15808,Sr(CdSb)2
44.2675,44.2674,69.1496,-21.727197,-0.479,93.947,43353,90,173.611,0.0123,48.2813,48.2811,84.1361,mp-10010,0.0046,JVASP-15840,Al(CoSi)2
26.1879,57.6847,31.9913,-20.458034,-0.05,100.09299999999999,43690,55,157.056,0.0337,20.0726,36.3698,25.0447,mp-10032,0.0072,JVASP-15851,Ge2Os
14.8921,14.9015,15.4888,-10.198129,-1.061,33.407,42357,65,42.644,0.213,11.5583,11.5235,12.3537,mp-10106,0.008,JVASP-15879,Ca2As
45.528,45.528,33.5599,-17.22417,-0.156,60.753,44481,70,158.289,0.031,39.6402,39.6408,35.0448,mp-10125,0.0261,JVASP-15889,SbIr
20.6955,20.6955,13.2948,-15.27336,-0.44,111.5,44587,100,146.13299999999998,0.0054,15.8318,15.8346,12.8322,mp-10141,0.0043,JVASP-15897,SmB2
22.2548,22.2548,22.2548,-9.113690199999999,-1.685,71.06,44914,55,94.333,0.3557,15.8899,15.8899,15.8899,mp-10192,0.1552,JVASP-15919,LuP
40.2029,40.1612,39.4226,-10.31246,-0.069,125.7,76139,55,154.167,0.0482,32.1327,32.2011,34.916,mp-10201,0.0251,JVASP-15927,Ge2Mo
14.094000000000001,14.0069,8.7922,-32.704,-2.174,65.053,45974,70,143.789,0.0144,21.0163,22.7152,8.743,mp-10254,0.0101,JVASP-15942,Sr2IrO4
36.9065,36.9065,24.9992,-14.981923000000002,-0.395,43.613,26599,75,199.78900000000002,0.0187,13.2243,13.2243,19.9661,mp-7947,0.0075,JVASP-15996,PtO
29.6579,29.658,17.5694,-1.7398014,-0.5670000000000001,17.173,32021,70,38.689,0.3575,15.4294,15.4294,11.8763,mp-8150,0.0164,JVASP-16027,Ba(CdSb)2
30.233,30.233,30.233,-18.473573000000002,-2.536,40.46,30613,70,100.53299999999999,3.1144,1.8472,1.8858,1.8862,mp-8338,0.0141,JVASP-16042,TaF3
14.615,14.615,11.8157,-11.374035000000001,-0.958,53.067,49740,60,78.678,0.0556,12.1932,12.1932,9.6173,mp-8432,0.0156,JVASP-16052,CaCuP
32.1086,32.1086,17.631,-12.626247,-0.8490000000000001,28.52,63594,85,43.633,0.0084,36.3913,36.3985,13.2123,mp-8539,0.0055,JVASP-16061,SrSnP
24.9599,24.9599,11.6457,-8.268744,-0.985,24.093000000000004,59186,80,64.98899999999999,0.0309,19.8726,19.8666,11.431,mp-8606,0.0037,JVASP-16074,BaSbPt
44.5686,44.5687,43.5514,-22.280198000000002,-0.8420000000000001,49.347,72000,75,106.911,0.0158,36.6472,36.6473,35.3426,mp-9025,0.0155,JVASP-16118,YSiAu
43.0021,43.0021,27.8326,-11.528472,-0.765,65.447,75032,70,125.77799999999999,0.0374,30.5168,30.5118,24.3971,mp-9164,0.0134,JVASP-16125,ThSiAu
23.1368,44.5798,52.0516,-18.541481,-0.8170000000000001,72.2,42946,75,100.96700000000001,0.0028,21.3568,56.9512,59.2805,mp-9969,0.002,JVASP-16224,ScSi
23.3089,45.4751,49.4326,-12.475819,-0.852,61.88,42947,75,90.43299999999999,0.003,20.9546,40.4974,45.6883,mp-9970,0.0025,JVASP-16225,ScGe
39.1588,39.1588,39.1588,-8.4440034,-1.5530000000000002,50.1,52010,60,71.9,0.3052,24.7143,24.7143,24.7145,mp-10622,0.1237,JVASP-16272,PrAs
17.3021,17.3021,17.3021,-5.862908,-1.307,36.22,52484,100,66.767,0.0194,15.9945,15.9945,15.9946,mp-10652,0.006,JVASP-16290,SmTe
9.7349,9.7349,9.7349,-3.5282186,-1.45,22.48,52792,90,43.067,0.5923,8.2902,8.2902,8.2902,mp-10684,0.1081,JVASP-16306,CaTe
16.0447,16.0447,16.0447,-7.5993113,-0.929,46.34,58128,85,185.433,0.0438,14.2721,14.2721,14.2721,mp-10903,0.0063,JVASP-16376,AlPt
2.7259,3.2413,2.9967,-13.808778,0.091,17.213,95835,45,32.489000000000004,5.3249,2.2356,2.6722,2.459,mp-11180,3.7248,JVASP-16410,NaC
35.0903,35.0903,47.8328,-5.3197519,-0.4,-6.04,56981,85,34.667,0.0729,19.9801,19.9706,26.1779,mp-11213,0.0424,JVASP-16423,BaAgSb
45.1785,45.1785,45.1785,-5.095103900000001,-0.406,37.1,58104,95,60.333,0.035,41.1451,41.1451,41.1451,mp-11221,0.0165,JVASP-16427,SmAl
40.726,40.726,56.3598,-11.341522,-0.145,52.913000000000004,163155,75,111.522,0.0295,37.7049,37.7029,76.2743,mp-11239,0.0133,JVASP-16439,ZrAg
38.9985,38.9985,38.9985,-7.4974802,-0.599,104.2,58734,95,211.267,0.0246,41.8528,41.8528,41.8528,mp-11276,0.0086,JVASP-16459,BeRh
6.8534,6.8534,6.8534,-11.326753,-2.9330000000000003,78.42,77652,80,139.8,0.0192,5.6034,5.6034,5.6033,mp-11344,0.003,JVASP-16493,PrO
17.0708,17.0708,7.7988,5.1660221,-0.248,10.047,104327,95,26.410999999999998,0.0165,16.2933,16.2932,9.7564,mp-11466,0.0113,JVASP-16550,NaHg2
19.2257,19.2257,11.2522,-7.087392599999999,-0.763,30.447,57020,65,47.511,0.0825,12.4924,12.5284,9.8106,mp-11700,0.0423,JVASP-16642,BaCuSb
13.2862,23.3586,22.4382,-20.94572,-0.425,101.15299999999999,80487,60,174.68900000000002,0.0271,13.7705,23.7435,22.8148,mp-11723,0.0066,JVASP-16645,ErNiC2
17.1938,16.6375,15.0988,-8.178736099999998,-1.003,13.953,647341,50,25.921999999999997,6.382000000000001,19.9247,18.480999999999998,14.8697,mp-12105,4.5747,JVASP-16737,RbO2