epsx,epsy,epsz,fin_en,form_enp,gv,icsd,kp_leng,kv,mbj_gap,mepsx,mepsy,mepsz,mpid,op_gap,jid,formula
8.2493,8.2493,8.3264,-58.375041,-0.65,20.967,408441,55,26.978,3.2483,6.233,6.2317,6.1311,mp-556712,2.539,JVASP-25790,Ga2BiS4
6.5909,6.5909,6.7314,-54.98814,-0.884,18.867,61256,60,38.644,3.1899,4.9617,4.9831,5.25,mp-556717,2.2532,JVASP-25791,Tl3Ga9S13O2
8.6161,8.6161,8.3066,-97.61663100000001,-1.597,36.74,154626,60,71.033,2.2938,7.9815,8.0277,7.627000000000001,mp-556781,1.7223,JVASP-25802,Y3CuGeS7
15.0895,39.8853,13.7986,-45.289786,-1.133,9.58,63686,50,17.5,0.4843,3.2348,3.0209,3.2783,mp-556834,0.2518,JVASP-25817,RuCl(OF3)2
7.0901,6.6457,6.1917,0.82549972,-0.19,6.207000000000001,413300,60,28.111,2.2704,5.1252,4.8578,4.5588,mp-556866,1.1693,JVASP-25823,Ag2HgSI2
3.5403,3.5403,3.2577,-59.170961,-2.34,29.427,154360,50,56.644,4.7342,2.8234,2.8237,2.6435,mp-556275,3.7176,JVASP-25844,Rb2Al2Sb2O7
3.5129,2.8644,3.2234,-43.087039000000004,-1.426,6.46,170859,45,11.333,5.1515,2.8055,2.3568,2.5934,mp-556418,3.7992,JVASP-25872,AlSCl3O2
5.4866,5.4866,5.2314,-77.468686,-1.69,14.367,412071,50,21.444000000000003,3.1564,4.8989,4.8987,4.5552,mp-556422,2.6638,JVASP-25875,NbCl3O
9.6594,9.1733,9.2389,-53.761811,-0.31,18.127,170639,50,30.278000000000002,1.5146,8.0614,7.7174,7.8221,mp-556434,1.1085,JVASP-25879,AgBi(PS3)2
4.1532,4.1532,4.0374,-97.59464100000001,-2.843,41.986999999999995,420040,55,85.978,4.378,3.4161,3.4161,3.285,mp-556438,3.5497,JVASP-25880,KNaSmNbO5
3.6449,3.6112,3.4837,-99.80319300000001,-2.846,46.946999999999996,95851,45,88.111,6.9913,3.0075,2.9909,2.9358,mp-556450,5.1055,JVASP-25884,PrB2ClO4
3.8543,3.8543,3.8543,-31.442248,-2.81,23.7,15777,45,47.3,2.5738,5.3154,5.3543,5.2218,mp-556487,1.5409,JVASP-25886,K2NaMoF6
6.0287,6.3769,6.3157,-124.55151000000001,-2.7319999999999998,70.187,54078,50,120.611,2.9215,4.5493,4.8149,4.6268,mp-556489,2.3934,JVASP-25888,Ta2SnO6
5.7337,5.7337,5.9857,-98.253567,-2.84,58.147,47178,50,132.578,2.81,4.8121,4.812,5.0912,mp-556525,2.4887,JVASP-25896,BaNd2PtO5
11.4289,7.9052,10.8613,-23.056548,-1.146,26.487,79536,60,54.011,0.0237,9.148,6.391,9.6841,mp-556536,0.0215,JVASP-25900,Na2Zr(CuS2)2
4.2092,4.4845,4.3041,-67.297662,-2.377,77.893,155920,45,159.189,4.8668,3.8397,4.1118,3.9339999999999997,mp-546125,3.6975,JVASP-26328,ScAsO4
7.0092,7.0092,6.3075,-33.475821999999994,-2.1,43.92,92431,60,78.833,2.7204,5.0922,5.0921,4.7073,mp-546266,1.5217,JVASP-26331,DyBi2IO4
2.2286,2.1158,3.5693,-21.282347,-1.032,10.027000000000001,27138,45,35.278,7.3966,1.8761,1.7943,2.8493,mp-546500,4.5827,JVASP-26336,NaCNO
4.77,4.5103,4.2145,-35.864554,-2.187,23.087,84636,50,49.144,4.8613,3.7225,3.5891,3.3985,mp-547244,3.4503,JVASP-26348,SrBiClO2
3.6786,3.6786,3.3303,-28.809615,-1.13,34.913000000000004,73613,50,70.956,3.6248,2.853,2.8529,2.713,mp-549697,2.5257,JVASP-26365,RbGeIO6
5.0829,4.7948,5.0699,-23.467876,-1.3030000000000002,23.386999999999997,280770,50,54.544,4.3788,3.7403,3.5982,3.7753,mp-550553,3.0883,JVASP-26375,CdBiClO2
6.888999999999999,6.888999999999999,6.4124,-33.457186,-2.109,46.086999999999996,92437,60,81.444,2.8618,5.0366,5.0364,4.7572,mp-550635,1.6011,JVASP-26377,LuBi2IO4
3.568,3.5602,3.5751,-53.477998,-2.03,33.306999999999995,161501,45,96.211,5.181,3.0246,3.0466,3.0665,mp-550925,3.6482,JVASP-26382,NaScAs2O7
6.9815,6.9815,6.3243,-33.490153,-2.104,44.473,92433,60,79.456,2.7496,5.0779,5.0779,4.715,mp-551101,1.5384,JVASP-26384,HoBi2IO4
6.9485,6.9485,6.3425,-33.461653999999996,-2.106,44.806999999999995,89618,60,79.711,2.7977,5.0735,5.0717,4.7392,mp-551250,1.5568,JVASP-26387,ErBi2IO4
4.0483,4.0589,3.7321,-18.978877,-2.274,15.647,1038,40,47.411,2.7,3.5074,3.5195,3.1447,mp-551456,2.4154,JVASP-26389,Ba2CuClO2
7.0019,7.0019,6.2935,-35.509097,-2.104,43.586999999999996,92432,60,78.14399999999999,2.9829,5.1057,5.1056,4.7658,mp-551816,1.5271,JVASP-26392,YBi2IO4
5.8932,6.7455,7.9522,-18.240539000000002,-1.29,14.253,415203,50,23.022,1.5401,4.8726,5.3858,6.4201,mp-551826,1.3522,JVASP-26393,NbTlBr4O
13.7693,13.7143,11.1135,-16.168236,-1.1,35.82,411143,55,84.3,1.2524,9.6446,9.6154,8.1495,mp-552098,0.2769,JVASP-26400,Bi2SeO2
5.8937,5.8937,5.4371,-37.038901,-2.225,44.273,92405,55,83.089,3.0114,4.4094,4.4092,4.096,mp-552604,1.4302,JVASP-26409,YBi2ClO4
6.9231,6.9231,6.3704,-33.480923,-2.11,45.367,92435,60,80.578,2.8099,5.0505,5.0505,4.7369,mp-552738,1.5745,JVASP-26411,TmBi2IO4
6.252000000000001,6.252000000000001,5.647,-34.385463,-2.174,44.806999999999995,92417,55,81.47800000000001,3.2105,4.5175,4.5177,4.1287,mp-552992,1.4609999999999999,JVASP-26416,DyBi2BrO4
4.5328,4.1015,4.5655,-36.276677,-2.195,24.8,84635,50,53.4,4.9154,3.4932,3.2472,3.5364,mp-553025,3.6306,JVASP-26417,CaBiClO2
5.4879999999999995,6.1959,6.0751,-86.070937,-3.237,69.68,109191,45,174.033,3.7871,4.6017,5.1739999999999995,5.1027,mp-553961,3.3156,JVASP-26443,ScNbO4
3.4826,3.6984,3.3948,-28.10217,-2.313,10.66,200109,45,22.666999999999998,5.3169,2.698,2.859,2.6341,mp-555234,3.8792,JVASP-26635,RbSbBrF3
4.5071,3.5573,4.5484,-45.302476,-1.276,15.087,412095,45,30.144000000000002,2.0178,3.7824,2.9281,3.8425,mp-555741,1.8576,JVASP-26728,RbAu(SO4)2
4.3389999999999995,4.0698,3.9369,-26.368765000000003,-0.835,6.027,35685,50,12.244000000000002,3.7710000000000004,3.3809,3.2161,3.1396,mp-555805,2.6913,JVASP-26735,AlSCl7
4.4961,4.9246,4.4293,-65.13591600000001,-1.817,20.74,16519,55,33.433,4.0819,3.3348,3.5654,3.2689999999999997,mp-555836,2.9111,JVASP-26740,Sn2PClO4
2.6897,2.9147,2.5922,-119.14092,-2.208,23.686999999999998,418250,50,39.211,4.1566,2.2138,2.3707,2.1358,mp-555840,3.2987,JVASP-26741,K2PO4
3.055,3.0175,3.072,-99.882333,-2.113,33.873000000000005,93593,50,77.556,5.724,2.2762,2.2614,2.2908,mp-555851,3.3219,JVASP-26743,Na2Cd3(P2O7)2
2.8169,2.8169,2.8169,-56.029103000000006,-2.302,7.74,418726,50,13.0,6.0222,2.2595,2.2594,2.2595,mp-555863,4.9462,JVASP-26746,P4PtF12
8.0823,8.0823,7.4989,-96.43521899999999,-1.694,36.94,156276,60,70.133,2.1504,7.1801,7.182,6.7384,mp-555893,1.6748,JVASP-26752,Pr3CuSiS7
5.7566,5.6554,6.612,-43.186370000000004,-1.083,10.833,417942,55,24.421999999999997,1.931,5.0214,4.9107,5.7010000000000005,mp-555900,1.4792,JVASP-26754,Nb2Tl5S4Cl9
5.1629,5.1629,4.4109,-83.981561,-0.935,29.147,152758,45,46.211000000000006,4.4510000000000005,3.9188,3.9186,3.4589999999999996,mp-555903,3.3087,JVASP-26756,Al(IO3)3
11.7415,25.5021,40.3513,-40.35586,-1.262,19.707,66006,50,48.943999999999996,0.011000000000000001,22.8234,54.9231,92.0537,mp-555936,0.0006,JVASP-26764,RbNa7(CoO3)2
7.5245,6.3514,6.1988,-57.068447,-0.93,15.047,10456,60,32.878,2.9185,5.6284,5.0511,4.9706,mp-555954,1.8041,JVASP-26767,BaSnHgS4
8.6434,8.6434,8.2013,-86.576196,-1.597,37.207,155076,60,71.244,2.3767,7.5363,7.5441,7.1748,mp-555978,1.7803,JVASP-26773,Sm3CuGeS7
8.2987,7.5539,7.484,-13.892793,-0.6679999999999999,17.92,413290,55,48.833,1.5727,7.0207,6.3534,6.3416,mp-556094,1.0928,JVASP-26802,AgBiSCl2
4.9642,5.1619,4.8643,-73.021617,-3.2969999999999997,43.667,73096,45,104.27799999999999,3.6356,4.1707,4.3808,4.098,mp-556108,3.176,JVASP-26807,DyTiClO3
4.0276,3.6612,3.9116,-56.910644999999995,-2.654,33.88,78753,45,70.0,3.9303,3.605,3.2463,3.4360000000000004,mp-556185,3.4739,JVASP-26822,RbNaTiO3
4.8018,4.8018,4.9845,-75.18343,-2.531,4.247,59999,50,51.744,3.7728,4.0368,4.0368,4.2498,mp-510456,3.1713,JVASP-27004,Zr(MoO4)2
9.9408,9.3823,9.8475,-14.289056,-0.7509999999999999,8.467,39820,55,14.011,0.9484,11.7542,11.1092,11.6796,mp-541013,0.8845,JVASP-27264,TiI4
8.3028,8.3028,11.2796,-7.220351700000001,-1.0290000000000001,33.753,56443,60,45.456,1.7285,6.6038,6.6038,7.562,mp-10614,0.8989,JVASP-4696,SrLiP
46.1523,46.1523,115.0609,-12.929444,-0.743,94.53299999999999,52114,65,196.25599999999997,0.0354,36.3169,36.3171,93.1442,mp-10628,0.0101,JVASP-4699,TaS
5.4783,6.0304,6.5774,-59.320849,-0.87,10.587,93758,50,21.344,2.0552,4.5802,4.8305,5.1805,mp-10838,1.5719,JVASP-4714,NaYb(PS3)2
35.5764,35.5765,28.4233,-8.3355015,-0.38,38.373000000000005,649594,55,66.089,0.0612,25.7102,25.7108,19.9517,mp-1115,0.011000000000000001,JVASP-128,PtSe2
14.5768,14.5768,10.6285,-4.453092900000001,-0.491,15.34,69676,65,23.566999999999997,1.2885,5.6921,5.6921,5.8983,mp-1136,0.6515,JVASP-4331,Na3As
3.1744,3.1791,3.1507,-61.370501000000004,-3.313,156.487,43732,45,241.278,7.5712,2.7319,2.7339,2.7221,mp-1143,6.4303,JVASP-32,Al2O3
9.4529,9.4529,9.007,-6.880917500000001,-0.44,26.3,650992,55,42.967,2.0634,7.3573,7.4001,6.7528,mp-1170,1.2185,JVASP-131,SnS2
6.9263,6.9263,7.1732,-50.736315000000005,-0.244,190.627,24170,60,213.34400000000002,3.2315,6.0306,6.0287,6.1976,mp-11714,2.4947,JVASP-107,SiC
7.9109,7.9109,7.9109,-1.18662,-0.718,28.86,162755,55,59.7,2.6296,5.4926,5.4926,5.4926,mp-1190,1.2241,JVASP-96,ZnSe
3.1004,3.1004,3.1004,-8.0844815,-3.005,131.08,161607,45,160.667,6.8046,2.5412,2.5412,2.5412,mp-1265,5.1301,JVASP-116,MgO
24.5497,22.1671,13.4205,-8.394825599999999,-0.314,31.593000000000004,155418,65,39.955999999999996,1.4582,16.9844,15.3557,9.7871,mp-12910,0.8253,JVASP-207,GeS
1.9565,1.9449,1.9296,-28.98327,-3.435,39.747,156158,45,70.078,10.9173,1.5969,1.5907,1.5869,mp-12948,7.1518,JVASP-4825,NaMgF3
20.434,20.434,27.0348,-7.6634402,-0.38799999999999996,22.247,160103,90,34.678000000000004,0.0635,16.7059,16.6254,33.3074,mp-13051,0.0063,JVASP-4831,Sr2Si
6.3965,6.3965,6.502999999999999,-16.724915,-0.9520000000000001,38.753,162795,50,74.956,3.1164,4.8683,4.8681,4.6832,mp-13146,1.9825,JVASP-4840,Ca3N2
4.5557,4.6992,3.3916,-15.589920000000001,-1.385,179.053,162871,45,245.622,5.8849,3.6086,3.6977,2.8867,mp-13150,4.3662,JVASP-4843,BN
4.4817,4.4817,4.7574,-24.309225,-1.5230000000000001,135.76,163950,50,213.86700000000002,4.4288,3.8704,3.8704,4.1489,mp-13178,3.6884,JVASP-4849,AlN
10.9265,10.9265,8.1016,-54.666306000000006,-0.52,15.213,420302,60,31.421999999999997,1.6889,10.2182,10.2133,7.5974,mp-13383,1.4806,JVASP-4852,ScAg(PSe3)2
9.6861,9.6861,7.6468,-51.837677,-0.544,14.187000000000001,420303,60,29.044,2.0043,7.5711,7.5686,6.2064,mp-13384,1.651,JVASP-4855,ErAg(PSe3)2
9.7121,9.7121,7.622999999999999,-51.801455,-0.5429999999999999,14.507,420304,60,29.244,2.0086,8.037,8.0353,6.5004,mp-13385,1.6672,JVASP-4858,TmAg(PSe3)2
18.4771,17.9569,8.6618,-32.683741999999995,-0.316,36.36,16694,60,64.633,0.0251,16.0348,15.575999999999999,6.8578,mp-13682,0.0157,JVASP-155,PdS2
7.1864,6.6503,6.9016,-97.572264,-0.149,6.087000000000001,417155,55,11.277999999999999,2.8966,6.0963,5.7501,5.9369,mp-1469,2.3305,JVASP-4346,P4S3
8.8565,8.8565,10.6326,-9.7216138,-0.5820000000000001,21.28,73387,60,33.533,2.0709999999999997,6.6689,6.6623,6.3378,mp-1572,0.5013,JVASP-4358,GaSe
4.3676,4.4823,4.004,-88.41680799999999,-1.262,14.093,655563,50,21.289,5.2894,3.1281,3.1919,2.9325,mp-1581,3.4063,JVASP-4361,As2O3
5.5312,4.66,4.8849,-22.374228,-0.6709999999999999,13.392999999999999,27205,50,22.289,3.5611,4.5297,3.9645,4.131,mp-1602,2.7267,JVASP-137,SiS2
17.4951,17.4951,10.9553,-27.376984000000004,-0.6709999999999999,39.12,644334,55,57.633,1.3226,16.5294,16.5294,9.7072,mp-1634,0.9063,JVASP-57,MoSe2
38.3875,38.3875,152.1034,-6.3380841,-0.971,21.753,92167,100,62.022,0.0127,39.7726,39.771,178.9806,mp-1644,0.003,JVASP-4370,PrSb
5.2679,5.263,5.5828,-22.790723999999997,-1.345,26.033,107308,55,47.356,3.1305,4.3912,4.3872,4.6453,mp-16755,2.2058,JVASP-4879,Mg(AlS2)2
12.7303,16.7227,9.881,-31.419863,-1.104,23.973000000000003,652241,90,38.022,0.7417,11.0205,13.8407,9.1241,mp-1683,0.0238,JVASP-362,ZrSe3
5.2941,5.7913,5.3755,-59.951537,-0.705,8.667,44675,50,17.778,2.6302,4.0615,4.3772,4.1043,mp-17146,1.6409,JVASP-4891,K2S5
15.7868,15.7868,10.209,-30.560368,-0.545,43.193000000000005,40752,55,59.888999999999996,1.4356,14.3245,14.325,8.9558,mp-1821,1.046,JVASP-75,WSe2
13.0241,12.1624,12.5601,-44.214439,-0.057,28.193,153457,65,41.756,1.6235,9.8179,9.2029,9.5468,mp-1863,0.9804,JVASP-4216,SiAs
3.4002,3.3927,3.3871,-33.445521,-2.314,0.927,4138,45,38.178000000000004,4.1136,2.912,2.9031,2.8967,mp-19052,3.6166,JVASP-4918,K3VO4
8.775,8.775,10.3015,-9.7165285,-0.5820000000000001,21.14,43540,60,33.0,2.1372,6.6182,6.6088,6.324,mp-1943,0.7249,JVASP-81,GaSe
8.3065,8.3065,6.1813,-57.37916,-2.281,109.473,88367,60,180.622,1.5743,5.638999999999999,5.638999999999999,4.8169,mp-19443,0.4901,JVASP-344,WO3
8.6313,8.6321,8.6311,-27.550559000000003,-2.5,96.54,27949,55,183.5,1.6989,7.0379,7.0377,7.0369,mp-19845,1.6702,JVASP-4957,TiPbO3
7.8308,7.6095,7.7437,-18.513758,-0.6459999999999999,16.573,65998,50,52.356,2.2509,5.3417,5.2727,5.3212,mp-20210,1.4752,JVASP-4993,Ag2PbO2
16.3916,16.3916,10.8383,-13.647807,-1.401,27.22,109291,65,37.567,0.5196,14.7443,14.7857,10.7758,mp-2076,0.0961,JVASP-365,ZrSe2
11.4988,11.4988,8.7073,-40.106624,-0.204,16.24,71968,65,31.467,1.3764,8.6296,8.6275,6.9145,mp-20902,0.2843,JVASP-5053,InAg(PSe3)2
7.8859,7.8859,6.7374,-13.241665,-1.429,32.253,53926,50,48.656000000000006,1.0596,5.3542,5.353,4.4006,mp-2097,0.5316,JVASP-281,SnO
12.6674,12.6674,16.8387,-28.134969,-1.534,47.827,29134,50,58.111000000000004,0.4232,14.2639,14.264000000000001,20.1915,mp-21208,0.0298,JVASP-5074,RhF3
25.7166,30.2228,17.2876,-6.696372099999999,-0.47100000000000003,21.253,100673,85,35.256,0.9246,17.1582,19.4447,11.8643,mp-2168,0.0178,JVASP-296,SnSe
4.3236,4.7482,6.6248,-24.58064,0.248,4.1530000000000005,654184,50,7.789,3.2103,4.0613,4.4177,5.7675,mp-2232,2.8719,JVASP-4388,CS2
12.3911,12.3911,9.8039,-20.742743,-0.914,56.927,647520,55,151.078,0.5987,9.1759,9.1782,7.6786,mp-2237,0.1812,JVASP-4391,TeO2
14.5933,14.5933,8.9592,-35.26795,-0.895,52.527,84181,55,74.311,1.514,13.9546,13.9638,8.3459,mp-224,0.7182,JVASP-72,WS2
8.5285,8.5285,6.7221,-50.990139,-0.35700000000000004,18.98,202185,50,35.6,1.9441,6.6844,6.648,5.4939,mp-22661,0.9792,JVASP-5146,InAg(PS3)2
49.1349,34.4731,20.7005,-50.366299,-0.073,28.913,73323,105,50.821999999999996,0.0304,46.5178,38.7057,14.9307,mp-22693,0.0013,JVASP-78,Te2W
4.4818,3.523,5.1519,2.0551521,-0.569,6.0329999999999995,76648,55,15.356,4.4379,3.3218,2.77,3.6964,mp-22855,2.6588,JVASP-4180,HgCl2
6.3205,6.3205,6.4934,1.4539883999999998,-0.131,10.007,78268,60,21.178,3.095,4.1832,4.1834,4.3456,mp-22863,1.5711,JVASP-5164,CuI
6.9068,6.917000000000001,6.765,-1.4530953000000002,-0.659,6.38,77325,55,14.3,3.1383,5.4716,5.4762,5.4111,mp-22883,2.2723,JVASP-161,PbI2
7.111000000000001,7.111000000000001,6.882999999999999,-1.4582378,-0.66,7.667000000000001,68819,55,14.744000000000002,3.1329,5.5554,5.5667,5.4552,mp-22893,2.2419,JVASP-5173,PbI2
5.5925,5.5925,5.5613,0.33097509,-0.255,10.32,78276,55,24.366999999999997,1.8765,4.4877,4.4879,4.5996,mp-22917,1.0124,JVASP-5176,CuBr
6.7973,6.7973,5.1874,-9.0016625,-1.6,15.547,150193,55,31.311,3.0163,5.4851,5.4851,4.274,mp-22969,2.0126,JVASP-5188,PbIF
11.189,8.2326,10.0484,-24.217537,-0.507,12.28,61802,60,23.666999999999998,2.4137,8.6445,6.7315,7.9039,mp-22971,1.7445,JVASP-5191,SbSBr
14.9762,10.5468,13.4489,-18.320701,-0.337,10.14,31292,65,20.5,1.9804,11.1145,8.3406,10.1871,mp-22996,1.3683,JVASP-5194,SbSeI
9.2941,20.6128,8.6557,-19.910554,-0.253,13.12,85298,65,27.833000000000002,1.2201,7.087000000000001,15.3828,6.5495,mp-23007,0.7657,JVASP-5197,SbSI
13.365,10.8194,12.3201,-15.720552,-0.435,9.18,163218,65,20.3,2.2243,9.872,8.3598,9.2347,mp-23020,1.5122,JVASP-5200,BiSeI
13.9754,9.1525,12.1043,-21.340532,-0.37200000000000005,11.793,28305,65,21.389,2.1257,10.6585,6.9735,9.3438,mp-23041,1.6009,JVASP-5203,SbSI
20.2548,22.5772,17.5859,-39.394818,-0.379,16.327,60205,90,32.211,1.3894,15.4881,16.3242,13.433,mp-23164,0.9855,JVASP-5215,Bi2Se3
3.8517,3.8517,4.2907,-12.707154,-0.5920000000000001,5.292999999999999,250363,55,11.389000000000001,2.6759,2.9453,2.9453,3.2060000000000004,mp-23176,1.261,JVASP-5218,SbCl5
3.3273,3.3273,2.5667,-20.323032,-0.9520000000000001,5.607,27869,45,8.777999999999999,6.1165,2.7497,2.7497,2.246,mp-23184,4.5313,JVASP-164,BCl3
7.1267,7.1267,7.3049,5.2699728,-0.23399999999999999,6.107,150345,60,15.044,2.045,5.0113,5.0113,5.2684,mp-23192,0.9695,JVASP-5224,HgI2
4.7063,4.7063,4.5407,-1.3903686000000002,-1.126,11.98,52279,55,20.167,4.821000000000001,3.7219,3.7225,3.5952,mp-23205,3.6244,JVASP-167,MgI2
3.2182,3.2234,3.1346,-5.073591400000001,-1.9809999999999999,17.04,26157,45,27.6,7.7203,2.7086,2.7114,2.6677,mp-23210,5.641,JVASP-170,MgCl2
4.3665,4.3573,4.3476,-13.013771,-0.63,5.28,26033,55,8.6,3.5328,3.5922,3.5915,3.5786,mp-23216,2.2176,JVASP-5230,SnBr4
3.9342,3.9342,2.8386,-15.090406,-0.48100000000000004,5.6129999999999995,173374,50,8.722000000000001,4.872,3.1742,3.1728,2.5342,mp-23225,3.6365,JVASP-173,BBr3
3.1734,3.0017,3.0442,-14.374922,-1.492,10.493,31696,45,16.756,8.395,2.6985,2.5810000000000004,2.6079,mp-23267,6.4796,JVASP-4183,BeCl2
3.7887,4.4079,4.4224,-25.074034,-0.6970000000000001,6.393,35133,50,10.289000000000001,5.3869,2.8876,3.3278,3.3346,mp-23280,3.6938,JVASP-4273,AsCl3
9.3472,9.4008,9.0787,-4.4998213,-0.34700000000000003,7.7,56569,50,13.232999999999999,2.3930000000000002,7.3791,7.3993,7.2763,mp-23281,2.0615,JVASP-176,SbI3
3.6164,3.552,3.4512,-25.800969,-1.135,5.9670000000000005,39768,55,9.311,5.2853,2.9959,2.9901,2.9341,mp-23288,3.9745,JVASP-4264,AlBr3
29.2381,21.1023,21.6879,-27.694183000000002,-0.318,11.4,28119,90,21.4,0.0204,43.9134,43.4705,45.0942,mp-23294,0.0139,JVASP-4234,RuBr3
10.3921,8.6655,9.6482,-21.698783,-0.612,12.307,31389,60,25.711,2.6672,8.6189,7.3401,8.0234,mp-23324,1.9677,JVASP-5254,BiSBr
6.1415,6.0767,5.4573,-8.918442,-0.44299999999999995,5.087,78913,50,12.110999999999999,2.9742,4.7131,4.6715,4.2479,mp-23376,1.9928,JVASP-5257,GaSeBr7
34.5849,34.6194,25.5998,-8.4349313,-0.258,12.507,153858,90,23.644000000000002,0.0532,27.2195,27.316999999999997,21.8855,mp-23435,0.0122,JVASP-5260,Bi2TeI
5.2542,5.2554,5.2585,-14.692897,-1.454,9.552999999999999,152021,55,19.956,3.457,4.802,4.8018,4.8032,mp-23504,2.8274,JVASP-5266,Sr2InI5
12.4984,9.6642,11.071,-18.684787,-0.465,11.34,23631,65,21.833000000000002,2.4072,9.4865,7.4973,8.3534,mp-23514,1.7666,JVASP-5269,BiSI
2.3019,2.5968,2.6682,-58.877475,-1.6,14.333,157166,45,33.455999999999996,7.4466,1.9515,2.1081,2.1828,mp-23724,5.3822,JVASP-5278,KHCO3
2.6519999999999997,2.661,2.662,-71.436003,-0.001,2.873,159307,50,4.822,7.7896,2.1064,2.108,2.1142,mp-23739,6.1443,JVASP-5281,SiH4
4.7891,4.7891,4.3687,-15.887227,-0.618,27.427,163570,50,44.244,2.9741,3.8249,3.8241,3.5578,mp-23759,1.6785,JVASP-5284,SrH2
5.6098,5.6098,4.7949,-16.26865,-0.626,33.433,157943,50,53.422,2.4801,4.0924,4.0924,3.6430000000000002,mp-24809,1.0549,JVASP-5296,CaH2
3.8324,3.7813,3.8334,-77.087267,-0.14400000000000002,8.907,160986,60,31.811,2.5009,3.1786,2.9365,2.8933,mp-24814,1.3002,JVASP-5299,KBH4
7.4254,7.4254,7.7063,-13.322122,-0.706,25.526999999999997,654685,60,39.478,2.45,5.8034,5.8262,5.5106,mp-2507,1.4998,JVASP-143,GaS
5.7184,5.7184,5.1451,-46.356111,-3.674,89.39299999999999,93033,65,186.28900000000002,4.6002,5.0198,5.0198,4.5606,mp-2574,4.0296,JVASP-350,ZrO2
7.7763,7.7763,9.1895,-42.46992,-3.241,126.14,161909,50,226.3,2.0697,6.5984,6.5984,7.7620000000000005,mp-2657,1.7688,JVASP-5,TiO2
47.663000000000004,47.663000000000004,47.663000000000004,-3.3678681000000004,-0.48100000000000004,34.08,52424,95,50.5,0.1636,34.6323,34.6323,34.6321,mp-2693,0.0168,JVASP-302,SnSe
9.6816,9.035,6.4762,-20.048469,-0.20800000000000002,15.593,2564,50,28.956,2.5866,7.1724,6.8947,5.3772,mp-27178,1.5976,JVASP-5311,HgPS3
4.9908,3.98,5.056,-20.038969,-0.34700000000000003,4.493,8052,50,9.122,4.1101,3.9541,3.3317,4.0446,mp-27257,2.9922,JVASP-4279,PBr3
5.3993,5.8423,5.7331,-16.779873000000002,-0.597,6.0729999999999995,14217,55,9.589,3.716,4.3006,4.687,4.6054,mp-27399,2.8431,JVASP-5344,SbBr3
26.1554,25.4507,12.197000000000001,-17.183448000000002,-1.36,21.346999999999998,868,55,46.478,0.0514,33.7119,30.1993,11.7711,mp-27440,0.0235,JVASP-5347,ZrCl
5.1583,5.1842,4.6896,-39.898091,-0.621,11.127,15910,50,19.511,3.395,4.2303,4.261,3.9846,mp-27462,2.48,JVASP-5353,AlPS4
4.7694,4.7743,4.7702,-42.918327000000005,-1.217,5.212999999999999,22103,55,8.556000000000001,2.7835,4.4174,4.4628,4.4416,mp-27634,2.5201,JVASP-5368,TiBr4
28.3242,23.552,13.9294,-17.247256,-0.051,11.073,107,70,19.756,0.6368,20.0798,16.9503,10.1964,mp-27655,0.0251,JVASP-4210,Te2I